   4   4   1   0
  0.6401197E+02  0.6350000E-09  0.6350000E-09  0.6350000E-09  0.5000000E-15
  1.000000000000000E-004
  CAR 
 Screening bandgap                       
      3.76312236    -17.31293667  301     -4.68151231      1.00000000
    -17.313  0.0000E+00  0.0000E+00  0.0000E+00  0.0000E+00
    -17.243  0.0000E+00  0.0000E+00  0.0000E+00  0.0000E+00
    -17.172  0.0000E+00  0.0000E+00  0.0000E+00  0.0000E+00
    -17.102  0.0000E+00  0.0000E+00  0.0000E+00  0.0000E+00
    -17.032  0.0000E+00  0.0000E+00  0.0000E+00  0.0000E+00
    -16.962  0.0000E+00  0.0000E+00  0.0000E+00  0.0000E+00
    -16.891  0.0000E+00  0.0000E+00  0.0000E+00  0.0000E+00
    -16.821  0.0000E+00  0.0000E+00  0.0000E+00  0.0000E+00
    -16.751  0.0000E+00  0.0000E+00  0.0000E+00  0.0000E+00
    -16.681  0.0000E+00  0.0000E+00  0.0000E+00  0.0000E+00
    -16.610  0.3548E-11  0.3382E-11  0.2492E-12  0.2376E-12
    -16.540  0.1151E-05  0.1111E-05  0.8088E-07  0.7808E-07
    -16.470  0.8167E-02  0.7982E-02  0.5738E-03  0.5609E-03
    -16.400  0.1458E+01  0.1442E+01  0.1030E+00  0.1019E+00
    -16.329  0.9423E+01  0.9411E+01  0.7650E+00  0.7630E+00
    -16.259  0.3297E+01  0.3324E+01  0.9966E+00  0.9966E+00
    -16.189  0.4792E-01  0.4887E-01  0.1000E+01  0.1000E+01
    -16.119  0.1882E-04  0.1942E-04  0.1000E+01  0.1000E+01
    -16.048  0.1657E-09  0.1732E-09  0.1000E+01  0.1000E+01
    -15.978  0.0000E+00  0.0000E+00  0.1000E+01  0.1000E+01
    -15.908  0.0000E+00  0.0000E+00  0.1000E+01  0.1000E+01
    -15.838  0.0000E+00  0.0000E+00  0.1000E+01  0.1000E+01
    -15.767  0.0000E+00  0.0000E+00  0.1000E+01  0.1000E+01
    -15.697  0.0000E+00  0.0000E+00  0.1000E+01  0.1000E+01
    -15.627  0.0000E+00  0.0000E+00  0.1000E+01  0.1000E+01
    -15.557  0.0000E+00  0.0000E+00  0.1000E+01  0.1000E+01
    -15.486  0.0000E+00  0.0000E+00  0.1000E+01  0.1000E+01
    -15.416  0.0000E+00  0.0000E+00  0.1000E+01  0.1000E+01
    -15.346  0.0000E+00  0.0000E+00  0.1000E+01  0.1000E+01
    -15.276  0.0000E+00  0.0000E+00  0.1000E+01  0.1000E+01
    -15.205  0.0000E+00  0.0000E+00  0.1000E+01  0.1000E+01
    -15.135  0.0000E+00  0.0000E+00  0.1000E+01  0.1000E+01
    -15.065  0.0000E+00  0.0000E+00  0.1000E+01  0.1000E+01
    -14.995  0.0000E+00  0.0000E+00  0.1000E+01  0.1000E+01
    -14.924  0.0000E+00  0.0000E+00  0.1000E+01  0.1000E+01
    -14.854  0.0000E+00  0.0000E+00  0.1000E+01  0.1000E+01
    -14.784  0.0000E+00  0.0000E+00  0.1000E+01  0.1000E+01
    -14.714  0.0000E+00  0.0000E+00  0.1000E+01  0.1000E+01
    -14.643  0.0000E+00  0.0000E+00  0.1000E+01  0.1000E+01
    -14.573  0.0000E+00  0.0000E+00  0.1000E+01  0.1000E+01
    -14.503  0.0000E+00  0.0000E+00  0.1000E+01  0.1000E+01
    -14.433  0.0000E+00  0.0000E+00  0.1000E+01  0.1000E+01
    -14.362  0.0000E+00  0.0000E+00  0.1000E+01  0.1000E+01
    -14.292  0.0000E+00  0.0000E+00  0.1000E+01  0.1000E+01
    -14.222  0.0000E+00  0.0000E+00  0.1000E+01  0.1000E+01
    -14.152  0.0000E+00  0.0000E+00  0.1000E+01  0.1000E+01
    -14.081  0.0000E+00  0.0000E+00  0.1000E+01  0.1000E+01
    -14.011  0.0000E+00  0.0000E+00  0.1000E+01  0.1000E+01
    -13.941  0.0000E+00  0.0000E+00  0.1000E+01  0.1000E+01
    -13.871  0.0000E+00  0.0000E+00  0.1000E+01  0.1000E+01
    -13.800  0.0000E+00  0.0000E+00  0.1000E+01  0.1000E+01
    -13.730  0.0000E+00  0.0000E+00  0.1000E+01  0.1000E+01
    -13.660  0.0000E+00  0.0000E+00  0.1000E+01  0.1000E+01
    -13.589  0.0000E+00  0.0000E+00  0.1000E+01  0.1000E+01
    -13.519  0.0000E+00  0.0000E+00  0.1000E+01  0.1000E+01
    -13.449  0.0000E+00  0.0000E+00  0.1000E+01  0.1000E+01
    -13.379  0.0000E+00  0.0000E+00  0.1000E+01  0.1000E+01
    -13.308  0.0000E+00  0.0000E+00  0.1000E+01  0.1000E+01
    -13.238  0.0000E+00  0.0000E+00  0.1000E+01  0.1000E+01
    -13.168  0.0000E+00  0.0000E+00  0.1000E+01  0.1000E+01
    -13.098  0.0000E+00  0.0000E+00  0.1000E+01  0.1000E+01
    -13.027  0.0000E+00  0.0000E+00  0.1000E+01  0.1000E+01
    -12.957  0.0000E+00  0.0000E+00  0.1000E+01  0.1000E+01
    -12.887  0.0000E+00  0.0000E+00  0.1000E+01  0.1000E+01
    -12.817  0.0000E+00  0.0000E+00  0.1000E+01  0.1000E+01
    -12.746  0.0000E+00  0.0000E+00  0.1000E+01  0.1000E+01
    -12.676  0.0000E+00  0.0000E+00  0.1000E+01  0.1000E+01
    -12.606  0.0000E+00  0.0000E+00  0.1000E+01  0.1000E+01
    -12.536  0.0000E+00  0.0000E+00  0.1000E+01  0.1000E+01
    -12.465  0.0000E+00  0.0000E+00  0.1000E+01  0.1000E+01
    -12.395  0.0000E+00  0.0000E+00  0.1000E+01  0.1000E+01
    -12.325  0.0000E+00  0.0000E+00  0.1000E+01  0.1000E+01
    -12.255  0.0000E+00  0.0000E+00  0.1000E+01  0.1000E+01
    -12.184  0.0000E+00  0.0000E+00  0.1000E+01  0.1000E+01
    -12.114  0.0000E+00  0.0000E+00  0.1000E+01  0.1000E+01
    -12.044  0.0000E+00  0.0000E+00  0.1000E+01  0.1000E+01
    -11.974  0.0000E+00  0.0000E+00  0.1000E+01  0.1000E+01
    -11.903  0.0000E+00  0.0000E+00  0.1000E+01  0.1000E+01
    -11.833  0.0000E+00  0.0000E+00  0.1000E+01  0.1000E+01
    -11.763  0.0000E+00  0.0000E+00  0.1000E+01  0.1000E+01
    -11.693  0.0000E+00  0.0000E+00  0.1000E+01  0.1000E+01
    -11.622  0.0000E+00  0.0000E+00  0.1000E+01  0.1000E+01
    -11.552  0.0000E+00  0.0000E+00  0.1000E+01  0.1000E+01
    -11.482  0.0000E+00  0.0000E+00  0.1000E+01  0.1000E+01
    -11.412  0.0000E+00  0.0000E+00  0.1000E+01  0.1000E+01
    -11.341  0.0000E+00  0.0000E+00  0.1000E+01  0.1000E+01
    -11.271  0.0000E+00  0.0000E+00  0.1000E+01  0.1000E+01
    -11.201  0.0000E+00  0.0000E+00  0.1000E+01  0.1000E+01
    -11.131  0.0000E+00  0.0000E+00  0.1000E+01  0.1000E+01
    -11.060  0.0000E+00  0.0000E+00  0.1000E+01  0.1000E+01
    -10.990  0.0000E+00  0.0000E+00  0.1000E+01  0.1000E+01
    -10.920  0.0000E+00  0.0000E+00  0.1000E+01  0.1000E+01
    -10.850  0.0000E+00  0.0000E+00  0.1000E+01  0.1000E+01
    -10.779  0.0000E+00  0.0000E+00  0.1000E+01  0.1000E+01
    -10.709  0.0000E+00  0.0000E+00  0.1000E+01  0.1000E+01
    -10.639  0.0000E+00  0.0000E+00  0.1000E+01  0.1000E+01
    -10.569  0.0000E+00  0.0000E+00  0.1000E+01  0.1000E+01
    -10.498  0.0000E+00  0.0000E+00  0.1000E+01  0.1000E+01
    -10.428  0.0000E+00  0.0000E+00  0.1000E+01  0.1000E+01
    -10.358  0.0000E+00  0.0000E+00  0.1000E+01  0.1000E+01
    -10.288  0.0000E+00  0.0000E+00  0.1000E+01  0.1000E+01
    -10.217  0.0000E+00  0.0000E+00  0.1000E+01  0.1000E+01
    -10.147  0.0000E+00  0.0000E+00  0.1000E+01  0.1000E+01
    -10.077  0.0000E+00  0.0000E+00  0.1000E+01  0.1000E+01
    -10.007  0.0000E+00  0.0000E+00  0.1000E+01  0.1000E+01
     -9.936  0.0000E+00  0.0000E+00  0.1000E+01  0.1000E+01
     -9.866  0.0000E+00  0.0000E+00  0.1000E+01  0.1000E+01
     -9.796  0.0000E+00  0.0000E+00  0.1000E+01  0.1000E+01
     -9.726  0.0000E+00  0.0000E+00  0.1000E+01  0.1000E+01
     -9.655  0.0000E+00  0.0000E+00  0.1000E+01  0.1000E+01
     -9.585  0.1580E-14  0.1580E-14  0.1000E+01  0.1000E+01
     -9.515  0.2925E-08  0.2910E-08  0.1000E+01  0.1000E+01
     -9.445  0.1768E-03  0.1761E-03  0.1000E+01  0.1000E+01
     -9.374  0.2442E+00  0.2437E+00  0.1017E+01  0.1017E+01
     -9.304  0.9607E+01  0.9600E+01  0.1692E+01  0.1692E+01
     -9.234  0.1703E+02  0.1703E+02  0.2888E+01  0.2888E+01
     -9.164  0.1583E+01  0.1586E+01  0.3000E+01  0.3000E+01
     -9.093  0.4925E-02  0.4940E-02  0.3000E+01  0.3000E+01
     -9.023  0.3726E-06  0.3743E-06  0.3000E+01  0.3000E+01
     -8.953  0.6068E-12  0.6132E-12  0.3000E+01  0.3000E+01
     -8.883  0.0000E+00  0.0000E+00  0.3000E+01  0.3000E+01
     -8.812  0.0000E+00  0.0000E+00  0.3000E+01  0.3000E+01
     -8.742  0.0000E+00  0.0000E+00  0.3000E+01  0.3000E+01
     -8.672  0.0000E+00  0.0000E+00  0.3000E+01  0.3000E+01
     -8.601  0.0000E+00  0.0000E+00  0.3000E+01  0.3000E+01
     -8.531  0.0000E+00  0.0000E+00  0.3000E+01  0.3000E+01
     -8.461  0.0000E+00  0.0000E+00  0.3000E+01  0.3000E+01
     -8.391  0.0000E+00  0.0000E+00  0.3000E+01  0.3000E+01
     -8.320  0.0000E+00  0.0000E+00  0.3000E+01  0.3000E+01
     -8.250  0.0000E+00  0.0000E+00  0.3000E+01  0.3000E+01
     -8.180  0.0000E+00  0.0000E+00  0.3000E+01  0.3000E+01
     -8.110  0.0000E+00  0.0000E+00  0.3000E+01  0.3000E+01
     -8.039  0.0000E+00  0.0000E+00  0.3000E+01  0.3000E+01
     -7.969  0.0000E+00  0.0000E+00  0.3000E+01  0.3000E+01
     -7.899  0.0000E+00  0.0000E+00  0.3000E+01  0.3000E+01
     -7.829  0.0000E+00  0.0000E+00  0.3000E+01  0.3000E+01
     -7.758  0.0000E+00  0.0000E+00  0.3000E+01  0.3000E+01
     -7.688  0.0000E+00  0.0000E+00  0.3000E+01  0.3000E+01
     -7.618  0.0000E+00  0.0000E+00  0.3000E+01  0.3000E+01
     -7.548  0.0000E+00  0.0000E+00  0.3000E+01  0.3000E+01
     -7.477  0.0000E+00  0.0000E+00  0.3000E+01  0.3000E+01
     -7.407  0.0000E+00  0.0000E+00  0.3000E+01  0.3000E+01
     -7.337  0.0000E+00  0.0000E+00  0.3000E+01  0.3000E+01
     -7.267  0.0000E+00  0.0000E+00  0.3000E+01  0.3000E+01
     -7.196  0.0000E+00  0.0000E+00  0.3000E+01  0.3000E+01
     -7.126  0.0000E+00  0.0000E+00  0.3000E+01  0.3000E+01
     -7.056  0.0000E+00  0.0000E+00  0.3000E+01  0.3000E+01
     -6.986  0.0000E+00  0.0000E+00  0.3000E+01  0.3000E+01
     -6.915  0.0000E+00  0.0000E+00  0.3000E+01  0.3000E+01
     -6.845  0.0000E+00  0.0000E+00  0.3000E+01  0.3000E+01
     -6.775  0.0000E+00  0.0000E+00  0.3000E+01  0.3000E+01
     -6.705  0.0000E+00  0.0000E+00  0.3000E+01  0.3000E+01
     -6.634  0.0000E+00  0.0000E+00  0.3000E+01  0.3000E+01
     -6.564  0.0000E+00  0.0000E+00  0.3000E+01  0.3000E+01
     -6.494  0.0000E+00  0.0000E+00  0.3000E+01  0.3000E+01
     -6.424  0.0000E+00  0.0000E+00  0.3000E+01  0.3000E+01
     -6.353  0.0000E+00  0.0000E+00  0.3000E+01  0.3000E+01
     -6.283  0.0000E+00  0.0000E+00  0.3000E+01  0.3000E+01
     -6.213  0.0000E+00  0.0000E+00  0.3000E+01  0.3000E+01
     -6.143  0.0000E+00  0.0000E+00  0.3000E+01  0.3000E+01
     -6.072  0.0000E+00  0.0000E+00  0.3000E+01  0.3000E+01
     -6.002  0.0000E+00  0.0000E+00  0.3000E+01  0.3000E+01
     -5.932  0.0000E+00  0.0000E+00  0.3000E+01  0.3000E+01
     -5.862  0.0000E+00  0.0000E+00  0.3000E+01  0.3000E+01
     -5.791  0.0000E+00  0.0000E+00  0.3000E+01  0.3000E+01
     -5.721  0.0000E+00  0.0000E+00  0.3000E+01  0.3000E+01
     -5.651  0.0000E+00  0.0000E+00  0.3000E+01  0.3000E+01
     -5.581  0.0000E+00  0.0000E+00  0.3000E+01  0.3000E+01
     -5.510  0.0000E+00  0.0000E+00  0.3000E+01  0.3000E+01
     -5.440  0.0000E+00  0.0000E+00  0.3000E+01  0.3000E+01
     -5.370  0.0000E+00  0.0000E+00  0.3000E+01  0.3000E+01
     -5.300  0.0000E+00  0.0000E+00  0.3000E+01  0.3000E+01
     -5.229  0.0000E+00  0.0000E+00  0.3000E+01  0.3000E+01
     -5.159  0.0000E+00  0.0000E+00  0.3000E+01  0.3000E+01
     -5.089  0.0000E+00  0.0000E+00  0.3000E+01  0.3000E+01
     -5.019  0.0000E+00  0.0000E+00  0.3000E+01  0.3000E+01
     -4.948  0.3548E-12  0.2860E-12  0.3000E+01  0.3000E+01
     -4.878  0.2088E-06  0.1780E-06  0.3000E+01  0.3000E+01
     -4.808  0.2657E-02  0.2389E-02  0.3000E+01  0.3000E+01
     -4.738  0.8239E+00  0.7791E+00  0.3058E+01  0.3055E+01
     -4.667  0.8586E+01  0.8485E+01  0.3661E+01  0.3651E+01
     -4.597  0.4706E+01  0.4843E+01  0.3992E+01  0.3991E+01
     -4.527  0.1157E+00  0.1248E+00  0.4000E+01  0.4000E+01
     -4.457  0.8066E-04  0.9166E-04  0.4000E+01  0.4000E+01
     -4.386  0.1284E-08  0.1540E-08  0.4000E+01  0.4000E+01
     -4.316  0.0000E+00  0.0000E+00  0.4000E+01  0.4000E+01
     -4.246  0.0000E+00  0.0000E+00  0.4000E+01  0.4000E+01
     -4.176  0.0000E+00  0.0000E+00  0.4000E+01  0.4000E+01
     -4.105  0.0000E+00  0.0000E+00  0.4000E+01  0.4000E+01
     -4.035  0.0000E+00  0.0000E+00  0.4000E+01  0.4000E+01
     -3.965  0.0000E+00  0.0000E+00  0.4000E+01  0.4000E+01
     -3.895  0.0000E+00  0.0000E+00  0.4000E+01  0.4000E+01
     -3.824  0.0000E+00  0.0000E+00  0.4000E+01  0.4000E+01
     -3.754  0.0000E+00  0.0000E+00  0.4000E+01  0.4000E+01
     -3.684  0.0000E+00  0.0000E+00  0.4000E+01  0.4000E+01
     -3.613  0.0000E+00  0.0000E+00  0.4000E+01  0.4000E+01
     -3.543  0.0000E+00  0.0000E+00  0.4000E+01  0.4000E+01
     -3.473  0.0000E+00  0.0000E+00  0.4000E+01  0.4000E+01
     -3.403  0.0000E+00  0.0000E+00  0.4000E+01  0.4000E+01
     -3.332  0.0000E+00  0.0000E+00  0.4000E+01  0.4000E+01
     -3.262  0.0000E+00  0.0000E+00  0.4000E+01  0.4000E+01
     -3.192  0.0000E+00  0.0000E+00  0.4000E+01  0.4000E+01
     -3.122  0.0000E+00  0.0000E+00  0.4000E+01  0.4000E+01
     -3.051  0.0000E+00  0.0000E+00  0.4000E+01  0.4000E+01
     -2.981  0.0000E+00  0.0000E+00  0.4000E+01  0.4000E+01
     -2.911  0.0000E+00  0.0000E+00  0.4000E+01  0.4000E+01
     -2.841  0.0000E+00  0.0000E+00  0.4000E+01  0.4000E+01
     -2.770  0.0000E+00  0.0000E+00  0.4000E+01  0.4000E+01
     -2.700  0.0000E+00  0.0000E+00  0.4000E+01  0.4000E+01
     -2.630  0.0000E+00  0.0000E+00  0.4000E+01  0.4000E+01
     -2.560  0.0000E+00  0.0000E+00  0.4000E+01  0.4000E+01
     -2.489  0.0000E+00  0.0000E+00  0.4000E+01  0.4000E+01
     -2.419  0.0000E+00  0.0000E+00  0.4000E+01  0.4000E+01
     -2.349  0.0000E+00  0.0000E+00  0.4000E+01  0.4000E+01
     -2.279  0.0000E+00  0.0000E+00  0.4000E+01  0.4000E+01
     -2.208  0.0000E+00  0.0000E+00  0.4000E+01  0.4000E+01
     -2.138  0.0000E+00  0.0000E+00  0.4000E+01  0.4000E+01
     -2.068  0.0000E+00  0.0000E+00  0.4000E+01  0.4000E+01
     -1.998  0.0000E+00  0.0000E+00  0.4000E+01  0.4000E+01
     -1.927  0.0000E+00  0.0000E+00  0.4000E+01  0.4000E+01
     -1.857  0.0000E+00  0.0000E+00  0.4000E+01  0.4000E+01
     -1.787  0.0000E+00  0.0000E+00  0.4000E+01  0.4000E+01
     -1.717  0.0000E+00  0.0000E+00  0.4000E+01  0.4000E+01
     -1.646  0.0000E+00  0.0000E+00  0.4000E+01  0.4000E+01
     -1.576  0.0000E+00  0.0000E+00  0.4000E+01  0.4000E+01
     -1.506  0.0000E+00  0.0000E+00  0.4000E+01  0.4000E+01
     -1.436  0.0000E+00  0.0000E+00  0.4000E+01  0.4000E+01
     -1.365  0.0000E+00  0.0000E+00  0.4000E+01  0.4000E+01
     -1.295  0.0000E+00  0.0000E+00  0.4000E+01  0.4000E+01
     -1.225  0.0000E+00  0.0000E+00  0.4000E+01  0.4000E+01
     -1.155  0.0000E+00  0.0000E+00  0.4000E+01  0.4000E+01
     -1.084  0.3161E-14  0.3161E-14  0.4000E+01  0.4000E+01
     -1.014  0.5863E-08  0.5425E-08  0.4000E+01  0.4000E+01
     -0.944  0.2333E-03  0.2211E-03  0.4000E+01  0.4000E+01
     -0.874  0.2154E+00  0.2088E+00  0.4015E+01  0.4015E+01
     -0.803  0.5890E+01  0.5828E+01  0.4429E+01  0.4424E+01
     -0.733  0.7626E+01  0.7681E+01  0.4965E+01  0.4964E+01
     -0.663  0.5015E+00  0.5152E+00  0.5000E+01  0.5000E+01
     -0.593  0.1050E-02  0.1104E-02  0.5000E+01  0.5000E+01
     -0.522  0.5249E-07  0.5647E-07  0.5000E+01  0.5000E+01
     -0.452  0.5689E-13  0.6163E-13  0.5000E+01  0.5000E+01
     -0.382  0.0000E+00  0.0000E+00  0.5000E+01  0.5000E+01
     -0.312  0.0000E+00  0.0000E+00  0.5000E+01  0.5000E+01
     -0.241  0.0000E+00  0.0000E+00  0.5000E+01  0.5000E+01
     -0.171  0.0000E+00  0.0000E+00  0.5000E+01  0.5000E+01
     -0.101  0.0000E+00  0.0000E+00  0.5000E+01  0.5000E+01
     -0.031  0.0000E+00  0.0000E+00  0.5000E+01  0.5000E+01
      0.040  0.0000E+00  0.0000E+00  0.5000E+01  0.5000E+01
      0.110  0.0000E+00  0.0000E+00  0.5000E+01  0.5000E+01
      0.180  0.0000E+00  0.0000E+00  0.5000E+01  0.5000E+01
      0.250  0.0000E+00  0.0000E+00  0.5000E+01  0.5000E+01
      0.321  0.0000E+00  0.0000E+00  0.5000E+01  0.5000E+01
      0.391  0.0000E+00  0.0000E+00  0.5000E+01  0.5000E+01
      0.461  0.0000E+00  0.0000E+00  0.5000E+01  0.5000E+01
      0.531  0.0000E+00  0.0000E+00  0.5000E+01  0.5000E+01
      0.602  0.0000E+00  0.0000E+00  0.5000E+01  0.5000E+01
      0.672  0.0000E+00  0.0000E+00  0.5000E+01  0.5000E+01
      0.742  0.0000E+00  0.0000E+00  0.5000E+01  0.5000E+01
      0.812  0.0000E+00  0.0000E+00  0.5000E+01  0.5000E+01
      0.883  0.0000E+00  0.0000E+00  0.5000E+01  0.5000E+01
      0.953  0.0000E+00  0.0000E+00  0.5000E+01  0.5000E+01
      1.023  0.0000E+00  0.0000E+00  0.5000E+01  0.5000E+01
      1.093  0.0000E+00  0.0000E+00  0.5000E+01  0.5000E+01
      1.164  0.0000E+00  0.0000E+00  0.5000E+01  0.5000E+01
      1.234  0.0000E+00  0.0000E+00  0.5000E+01  0.5000E+01
      1.304  0.0000E+00  0.0000E+00  0.5000E+01  0.5000E+01
      1.375  0.0000E+00  0.0000E+00  0.5000E+01  0.5000E+01
      1.445  0.0000E+00  0.0000E+00  0.5000E+01  0.5000E+01
      1.515  0.0000E+00  0.0000E+00  0.5000E+01  0.5000E+01
      1.585  0.0000E+00  0.0000E+00  0.5000E+01  0.5000E+01
      1.656  0.0000E+00  0.0000E+00  0.5000E+01  0.5000E+01
      1.726  0.0000E+00  0.0000E+00  0.5000E+01  0.5000E+01
      1.796  0.0000E+00  0.0000E+00  0.5000E+01  0.5000E+01
      1.866  0.0000E+00  0.0000E+00  0.5000E+01  0.5000E+01
      1.937  0.0000E+00  0.0000E+00  0.5000E+01  0.5000E+01
      2.007  0.0000E+00  0.0000E+00  0.5000E+01  0.5000E+01
      2.077  0.0000E+00  0.0000E+00  0.5000E+01  0.5000E+01
      2.147  0.7744E-13  0.6005E-13  0.5000E+01  0.5000E+01
      2.218  0.7870E-07  0.6598E-07  0.5000E+01  0.5000E+01
      2.288  0.1728E-02  0.1532E-02  0.5000E+01  0.5000E+01
      2.358  0.9009E+00  0.8432E+00  0.5063E+01  0.5059E+01
      2.428  0.1481E+02  0.1454E+02  0.6104E+01  0.6081E+01
      2.499  0.1227E+02  0.1256E+02  0.6966E+01  0.6963E+01
      2.569  0.4860E+00  0.5225E+00  0.7000E+01  0.7000E+01
      2.639  0.6133E-03  0.6912E-03  0.7000E+01  0.7000E+01
      2.709  0.9587E-01  0.9621E-01  0.7007E+01  0.7007E+01
      2.780  0.6594E+01  0.6604E+01  0.7470E+01  0.7471E+01
      2.850  0.1885E+02  0.1884E+02  0.8794E+01  0.8794E+01
      2.920  0.2916E+01  0.2910E+01  0.8999E+01  0.8999E+01
      2.990  0.1633E-01  0.1626E-01  0.9000E+01  0.9000E+01
      3.061  0.2301E-05  0.2287E-05  0.9000E+01  0.9000E+01
      3.131  0.7091E-11  0.7029E-11  0.9000E+01  0.9000E+01
      3.201  0.0000E+00  0.0000E+00  0.9000E+01  0.9000E+01
      3.271  0.0000E+00  0.0000E+00  0.9000E+01  0.9000E+01
      3.342  0.0000E+00  0.0000E+00  0.9000E+01  0.9000E+01
      3.412  0.0000E+00  0.0000E+00  0.9000E+01  0.9000E+01
      3.482  0.0000E+00  0.0000E+00  0.9000E+01  0.9000E+01
      3.552  0.0000E+00  0.0000E+00  0.9000E+01  0.9000E+01
      3.623  0.0000E+00  0.0000E+00  0.9000E+01  0.9000E+01
      3.693  0.0000E+00  0.0000E+00  0.9000E+01  0.9000E+01
      3.763  0.0000E+00  0.0000E+00  0.9000E+01  0.9000E+01
      3.76312236    -17.31293667  301     -4.68151231      1.00000000
    -17.313  0.0000E+00  0.0000E+00  0.0000E+00  0.0000E+00  0.0000E+00  0.0000E+00  0.0000E+00  0.0000E+00  0.0000E+00  0.0000E+00  0.0000E+00  0.0000E+00  0.0000E+00  0.0000E+00  0.0000E+00  0.0000E+00  0.0000E+00  0.0000E+00
    -17.243  0.0000E+00  0.0000E+00  0.0000E+00  0.0000E+00  0.0000E+00  0.0000E+00  0.0000E+00  0.0000E+00  0.0000E+00  0.0000E+00  0.0000E+00  0.0000E+00  0.0000E+00  0.0000E+00  0.0000E+00  0.0000E+00  0.0000E+00  0.0000E+00
    -17.172  0.0000E+00  0.0000E+00  0.0000E+00  0.0000E+00  0.0000E+00  0.0000E+00  0.0000E+00  0.0000E+00  0.0000E+00  0.0000E+00  0.0000E+00  0.0000E+00  0.0000E+00  0.0000E+00  0.0000E+00  0.0000E+00  0.0000E+00  0.0000E+00
    -17.102  0.0000E+00  0.0000E+00  0.0000E+00  0.0000E+00  0.0000E+00  0.0000E+00  0.0000E+00  0.0000E+00  0.0000E+00  0.0000E+00  0.0000E+00  0.0000E+00  0.0000E+00  0.0000E+00  0.0000E+00  0.0000E+00  0.0000E+00  0.0000E+00
    -17.032  0.0000E+00  0.0000E+00  0.0000E+00  0.0000E+00  0.0000E+00  0.0000E+00  0.0000E+00  0.0000E+00  0.0000E+00  0.0000E+00  0.0000E+00  0.0000E+00  0.0000E+00  0.0000E+00  0.0000E+00  0.0000E+00  0.0000E+00  0.0000E+00
    -16.962  0.0000E+00  0.0000E+00  0.0000E+00  0.0000E+00  0.0000E+00  0.0000E+00  0.0000E+00  0.0000E+00  0.0000E+00  0.0000E+00  0.0000E+00  0.0000E+00  0.0000E+00  0.0000E+00  0.0000E+00  0.0000E+00  0.0000E+00  0.0000E+00
    -16.891  0.0000E+00  0.0000E+00  0.0000E+00  0.0000E+00  0.0000E+00  0.0000E+00  0.0000E+00  0.0000E+00  0.0000E+00  0.0000E+00  0.0000E+00  0.0000E+00  0.0000E+00  0.0000E+00  0.0000E+00  0.0000E+00  0.0000E+00  0.0000E+00
    -16.821  0.0000E+00  0.0000E+00  0.0000E+00  0.0000E+00  0.0000E+00  0.0000E+00  0.0000E+00  0.0000E+00  0.0000E+00  0.0000E+00  0.0000E+00  0.0000E+00  0.0000E+00  0.0000E+00  0.0000E+00  0.0000E+00  0.0000E+00  0.0000E+00
    -16.751  0.0000E+00  0.0000E+00  0.0000E+00  0.0000E+00  0.0000E+00  0.0000E+00  0.0000E+00  0.0000E+00  0.0000E+00  0.0000E+00  0.0000E+00  0.0000E+00  0.0000E+00  0.0000E+00  0.0000E+00  0.0000E+00  0.0000E+00  0.0000E+00
    -16.681  0.0000E+00  0.0000E+00  0.0000E+00  0.0000E+00  0.0000E+00  0.0000E+00  0.0000E+00  0.0000E+00  0.0000E+00  0.0000E+00  0.0000E+00  0.0000E+00  0.0000E+00  0.0000E+00  0.0000E+00  0.0000E+00  0.0000E+00  0.0000E+00
    -16.610  0.1450E-11  0.1382E-11  0.1527E-13  0.1456E-13  0.1527E-13  0.1455E-13  0.1527E-13  0.1455E-13  0.0000E+00  0.0000E+00  0.0000E+00  0.0000E+00  0.0000E+00  0.0000E+00  0.0000E+00  0.0000E+00  0.0000E+00  0.0000E+00
    -16.540  0.4705E-06  0.4542E-06  0.4955E-08  0.4783E-08  0.4955E-08  0.4783E-08  0.4955E-08  0.4783E-08  0.0000E+00  0.0000E+00  0.0000E+00  0.0000E+00  0.0000E+00  0.0000E+00  0.0000E+00  0.0000E+00  0.0000E+00  0.0000E+00
    -16.470  0.3338E-02  0.3262E-02  0.3515E-04  0.3435E-04  0.3515E-04  0.3435E-04  0.3515E-04  0.3435E-04  0.0000E+00  0.0000E+00  0.0000E+00  0.0000E+00  0.0000E+00  0.0000E+00  0.0000E+00  0.0000E+00  0.0000E+00  0.0000E+00
    -16.400  0.5960E+00  0.5893E+00  0.6276E-02  0.6206E-02  0.6276E-02  0.6206E-02  0.6276E-02  0.6206E-02  0.0000E+00  0.0000E+00  0.0000E+00  0.0000E+00  0.0000E+00  0.0000E+00  0.0000E+00  0.0000E+00  0.0000E+00  0.0000E+00
    -16.329  0.3851E+01  0.3846E+01  0.4056E-01  0.4050E-01  0.4056E-01  0.4050E-01  0.4056E-01  0.4050E-01  0.0000E+00  0.0000E+00  0.0000E+00  0.0000E+00  0.0000E+00  0.0000E+00  0.0000E+00  0.0000E+00  0.0000E+00  0.0000E+00
    -16.259  0.1347E+01  0.1358E+01  0.1419E-01  0.1431E-01  0.1419E-01  0.1431E-01  0.1419E-01  0.1431E-01  0.0000E+00  0.0000E+00  0.0000E+00  0.0000E+00  0.0000E+00  0.0000E+00  0.0000E+00  0.0000E+00  0.0000E+00  0.0000E+00
    -16.189  0.1958E-01  0.1997E-01  0.2062E-03  0.2103E-03  0.2062E-03  0.2103E-03  0.2062E-03  0.2103E-03  0.0000E+00  0.0000E+00  0.0000E+00  0.0000E+00  0.0000E+00  0.0000E+00  0.0000E+00  0.0000E+00  0.0000E+00  0.0000E+00
    -16.119  0.7690E-05  0.7938E-05  0.8098E-07  0.8360E-07  0.8098E-07  0.8360E-07  0.8098E-07  0.8360E-07  0.0000E+00  0.0000E+00  0.0000E+00  0.0000E+00  0.0000E+00  0.0000E+00  0.0000E+00  0.0000E+00  0.0000E+00  0.0000E+00
    -16.048  0.6773E-10  0.7080E-10  0.7132E-12  0.7456E-12  0.7132E-12  0.7456E-12  0.7132E-12  0.7456E-12  0.0000E+00  0.0000E+00  0.0000E+00  0.0000E+00  0.0000E+00  0.0000E+00  0.0000E+00  0.0000E+00  0.0000E+00  0.0000E+00
    -15.978  0.0000E+00  0.0000E+00  0.0000E+00  0.0000E+00  0.0000E+00  0.0000E+00  0.0000E+00  0.0000E+00  0.0000E+00  0.0000E+00  0.0000E+00  0.0000E+00  0.0000E+00  0.0000E+00  0.0000E+00  0.0000E+00  0.0000E+00  0.0000E+00
    -15.908  0.0000E+00  0.0000E+00  0.0000E+00  0.0000E+00  0.0000E+00  0.0000E+00  0.0000E+00  0.0000E+00  0.0000E+00  0.0000E+00  0.0000E+00  0.0000E+00  0.0000E+00  0.0000E+00  0.0000E+00  0.0000E+00  0.0000E+00  0.0000E+00
    -15.838  0.0000E+00  0.0000E+00  0.0000E+00  0.0000E+00  0.0000E+00  0.0000E+00  0.0000E+00  0.0000E+00  0.0000E+00  0.0000E+00  0.0000E+00  0.0000E+00  0.0000E+00  0.0000E+00  0.0000E+00  0.0000E+00  0.0000E+00  0.0000E+00
    -15.767  0.0000E+00  0.0000E+00  0.0000E+00  0.0000E+00  0.0000E+00  0.0000E+00  0.0000E+00  0.0000E+00  0.0000E+00  0.0000E+00  0.0000E+00  0.0000E+00  0.0000E+00  0.0000E+00  0.0000E+00  0.0000E+00  0.0000E+00  0.0000E+00
    -15.697  0.0000E+00  0.0000E+00  0.0000E+00  0.0000E+00  0.0000E+00  0.0000E+00  0.0000E+00  0.0000E+00  0.0000E+00  0.0000E+00  0.0000E+00  0.0000E+00  0.0000E+00  0.0000E+00  0.0000E+00  0.0000E+00  0.0000E+00  0.0000E+00
    -15.627  0.0000E+00  0.0000E+00  0.0000E+00  0.0000E+00  0.0000E+00  0.0000E+00  0.0000E+00  0.0000E+00  0.0000E+00  0.0000E+00  0.0000E+00  0.0000E+00  0.0000E+00  0.0000E+00  0.0000E+00  0.0000E+00  0.0000E+00  0.0000E+00
    -15.557  0.0000E+00  0.0000E+00  0.0000E+00  0.0000E+00  0.0000E+00  0.0000E+00  0.0000E+00  0.0000E+00  0.0000E+00  0.0000E+00  0.0000E+00  0.0000E+00  0.0000E+00  0.0000E+00  0.0000E+00  0.0000E+00  0.0000E+00  0.0000E+00
    -15.486  0.0000E+00  0.0000E+00  0.0000E+00  0.0000E+00  0.0000E+00  0.0000E+00  0.0000E+00  0.0000E+00  0.0000E+00  0.0000E+00  0.0000E+00  0.0000E+00  0.0000E+00  0.0000E+00  0.0000E+00  0.0000E+00  0.0000E+00  0.0000E+00
    -15.416  0.0000E+00  0.0000E+00  0.0000E+00  0.0000E+00  0.0000E+00  0.0000E+00  0.0000E+00  0.0000E+00  0.0000E+00  0.0000E+00  0.0000E+00  0.0000E+00  0.0000E+00  0.0000E+00  0.0000E+00  0.0000E+00  0.0000E+00  0.0000E+00
    -15.346  0.0000E+00  0.0000E+00  0.0000E+00  0.0000E+00  0.0000E+00  0.0000E+00  0.0000E+00  0.0000E+00  0.0000E+00  0.0000E+00  0.0000E+00  0.0000E+00  0.0000E+00  0.0000E+00  0.0000E+00  0.0000E+00  0.0000E+00  0.0000E+00
    -15.276  0.0000E+00  0.0000E+00  0.0000E+00  0.0000E+00  0.0000E+00  0.0000E+00  0.0000E+00  0.0000E+00  0.0000E+00  0.0000E+00  0.0000E+00  0.0000E+00  0.0000E+00  0.0000E+00  0.0000E+00  0.0000E+00  0.0000E+00  0.0000E+00
    -15.205  0.0000E+00  0.0000E+00  0.0000E+00  0.0000E+00  0.0000E+00  0.0000E+00  0.0000E+00  0.0000E+00  0.0000E+00  0.0000E+00  0.0000E+00  0.0000E+00  0.0000E+00  0.0000E+00  0.0000E+00  0.0000E+00  0.0000E+00  0.0000E+00
    -15.135  0.0000E+00  0.0000E+00  0.0000E+00  0.0000E+00  0.0000E+00  0.0000E+00  0.0000E+00  0.0000E+00  0.0000E+00  0.0000E+00  0.0000E+00  0.0000E+00  0.0000E+00  0.0000E+00  0.0000E+00  0.0000E+00  0.0000E+00  0.0000E+00
    -15.065  0.0000E+00  0.0000E+00  0.0000E+00  0.0000E+00  0.0000E+00  0.0000E+00  0.0000E+00  0.0000E+00  0.0000E+00  0.0000E+00  0.0000E+00  0.0000E+00  0.0000E+00  0.0000E+00  0.0000E+00  0.0000E+00  0.0000E+00  0.0000E+00
    -14.995  0.0000E+00  0.0000E+00  0.0000E+00  0.0000E+00  0.0000E+00  0.0000E+00  0.0000E+00  0.0000E+00  0.0000E+00  0.0000E+00  0.0000E+00  0.0000E+00  0.0000E+00  0.0000E+00  0.0000E+00  0.0000E+00  0.0000E+00  0.0000E+00
    -14.924  0.0000E+00  0.0000E+00  0.0000E+00  0.0000E+00  0.0000E+00  0.0000E+00  0.0000E+00  0.0000E+00  0.0000E+00  0.0000E+00  0.0000E+00  0.0000E+00  0.0000E+00  0.0000E+00  0.0000E+00  0.0000E+00  0.0000E+00  0.0000E+00
    -14.854  0.0000E+00  0.0000E+00  0.0000E+00  0.0000E+00  0.0000E+00  0.0000E+00  0.0000E+00  0.0000E+00  0.0000E+00  0.0000E+00  0.0000E+00  0.0000E+00  0.0000E+00  0.0000E+00  0.0000E+00  0.0000E+00  0.0000E+00  0.0000E+00
    -14.784  0.0000E+00  0.0000E+00  0.0000E+00  0.0000E+00  0.0000E+00  0.0000E+00  0.0000E+00  0.0000E+00  0.0000E+00  0.0000E+00  0.0000E+00  0.0000E+00  0.0000E+00  0.0000E+00  0.0000E+00  0.0000E+00  0.0000E+00  0.0000E+00
    -14.714  0.0000E+00  0.0000E+00  0.0000E+00  0.0000E+00  0.0000E+00  0.0000E+00  0.0000E+00  0.0000E+00  0.0000E+00  0.0000E+00  0.0000E+00  0.0000E+00  0.0000E+00  0.0000E+00  0.0000E+00  0.0000E+00  0.0000E+00  0.0000E+00
    -14.643  0.0000E+00  0.0000E+00  0.0000E+00  0.0000E+00  0.0000E+00  0.0000E+00  0.0000E+00  0.0000E+00  0.0000E+00  0.0000E+00  0.0000E+00  0.0000E+00  0.0000E+00  0.0000E+00  0.0000E+00  0.0000E+00  0.0000E+00  0.0000E+00
    -14.573  0.0000E+00  0.0000E+00  0.0000E+00  0.0000E+00  0.0000E+00  0.0000E+00  0.0000E+00  0.0000E+00  0.0000E+00  0.0000E+00  0.0000E+00  0.0000E+00  0.0000E+00  0.0000E+00  0.0000E+00  0.0000E+00  0.0000E+00  0.0000E+00
    -14.503  0.0000E+00  0.0000E+00  0.0000E+00  0.0000E+00  0.0000E+00  0.0000E+00  0.0000E+00  0.0000E+00  0.0000E+00  0.0000E+00  0.0000E+00  0.0000E+00  0.0000E+00  0.0000E+00  0.0000E+00  0.0000E+00  0.0000E+00  0.0000E+00
    -14.433  0.0000E+00  0.0000E+00  0.0000E+00  0.0000E+00  0.0000E+00  0.0000E+00  0.0000E+00  0.0000E+00  0.0000E+00  0.0000E+00  0.0000E+00  0.0000E+00  0.0000E+00  0.0000E+00  0.0000E+00  0.0000E+00  0.0000E+00  0.0000E+00
    -14.362  0.0000E+00  0.0000E+00  0.0000E+00  0.0000E+00  0.0000E+00  0.0000E+00  0.0000E+00  0.0000E+00  0.0000E+00  0.0000E+00  0.0000E+00  0.0000E+00  0.0000E+00  0.0000E+00  0.0000E+00  0.0000E+00  0.0000E+00  0.0000E+00
    -14.292  0.0000E+00  0.0000E+00  0.0000E+00  0.0000E+00  0.0000E+00  0.0000E+00  0.0000E+00  0.0000E+00  0.0000E+00  0.0000E+00  0.0000E+00  0.0000E+00  0.0000E+00  0.0000E+00  0.0000E+00  0.0000E+00  0.0000E+00  0.0000E+00
    -14.222  0.0000E+00  0.0000E+00  0.0000E+00  0.0000E+00  0.0000E+00  0.0000E+00  0.0000E+00  0.0000E+00  0.0000E+00  0.0000E+00  0.0000E+00  0.0000E+00  0.0000E+00  0.0000E+00  0.0000E+00  0.0000E+00  0.0000E+00  0.0000E+00
    -14.152  0.0000E+00  0.0000E+00  0.0000E+00  0.0000E+00  0.0000E+00  0.0000E+00  0.0000E+00  0.0000E+00  0.0000E+00  0.0000E+00  0.0000E+00  0.0000E+00  0.0000E+00  0.0000E+00  0.0000E+00  0.0000E+00  0.0000E+00  0.0000E+00
    -14.081  0.0000E+00  0.0000E+00  0.0000E+00  0.0000E+00  0.0000E+00  0.0000E+00  0.0000E+00  0.0000E+00  0.0000E+00  0.0000E+00  0.0000E+00  0.0000E+00  0.0000E+00  0.0000E+00  0.0000E+00  0.0000E+00  0.0000E+00  0.0000E+00
    -14.011  0.0000E+00  0.0000E+00  0.0000E+00  0.0000E+00  0.0000E+00  0.0000E+00  0.0000E+00  0.0000E+00  0.0000E+00  0.0000E+00  0.0000E+00  0.0000E+00  0.0000E+00  0.0000E+00  0.0000E+00  0.0000E+00  0.0000E+00  0.0000E+00
    -13.941  0.0000E+00  0.0000E+00  0.0000E+00  0.0000E+00  0.0000E+00  0.0000E+00  0.0000E+00  0.0000E+00  0.0000E+00  0.0000E+00  0.0000E+00  0.0000E+00  0.0000E+00  0.0000E+00  0.0000E+00  0.0000E+00  0.0000E+00  0.0000E+00
    -13.871  0.0000E+00  0.0000E+00  0.0000E+00  0.0000E+00  0.0000E+00  0.0000E+00  0.0000E+00  0.0000E+00  0.0000E+00  0.0000E+00  0.0000E+00  0.0000E+00  0.0000E+00  0.0000E+00  0.0000E+00  0.0000E+00  0.0000E+00  0.0000E+00
    -13.800  0.0000E+00  0.0000E+00  0.0000E+00  0.0000E+00  0.0000E+00  0.0000E+00  0.0000E+00  0.0000E+00  0.0000E+00  0.0000E+00  0.0000E+00  0.0000E+00  0.0000E+00  0.0000E+00  0.0000E+00  0.0000E+00  0.0000E+00  0.0000E+00