    4    4    1    2
  0.6401197E+02  0.6350000E-09  0.6350000E-09  0.6350000E-09  0.5000000E-15
  1.000000000000000E-004
  CAR 
 Screening bandgap                       
      7      1      9
 
  0.0000000E+00  0.0000000E+00  0.0000000E+00  0.1000000E+01
    1      -16.354934    -16.354704   1.000000   1.000000
    2       -9.290035     -9.290009   1.000000   1.000000
    3       -9.290034     -9.290005   1.000000   1.000000
    4       -4.682005     -4.681020   0.505559   0.494441
    5       -0.797026     -0.796591   0.000000   0.000000
    6        2.423681      2.424718   0.000000   0.000000
    7        2.423681      2.424719   0.000000   0.000000
    8        2.805113      2.805073   0.000000   0.000000
    9        2.805120      2.805075   0.000000   0.000000
