       N       E                     dE             d eps       ncg     rms          rms(c)
DAV:   1    -0.170540676486E+02   -0.17054E+02   -0.77245E-06    36   0.150E-02    0.403E-01
DAV:   2    -0.171463826680E+02   -0.92315E-01   -0.13471E-02    36   0.631E-01    0.404E+00
DAV:   3    -0.169808028901E+02    0.16558E+00   -0.16284E-02    36   0.900E-01    0.286E-01
DAV:   4    -0.170528094172E+02   -0.72007E-01   -0.30043E-03    36   0.483E-01    0.113E+00
DAV:   5    -0.170514265677E+02    0.13828E-02   -0.70539E-04    36   0.296E-01    0.102E-01
DAV:   6    -0.170539512337E+02   -0.25247E-02   -0.22458E-04    36   0.149E-01    0.286E-01
DAV:   7    -0.170537388690E+02    0.21236E-03   -0.14654E-05    64   0.399E-02    0.787E-02
DAV:   8    -0.170538444438E+02   -0.10557E-03   -0.70278E-06    36   0.302E-02    0.339E-02
DAV:   9    -0.170538774843E+02   -0.33040E-04   -0.21772E-06    34   0.168E-02
   1 F= -.17053877E+02 E0= -.17039774E+02  d E =-.282067E-01  mag=     0.0002
