 vasp.5.4.1 05Feb16 (build Mar 30 2017 12:50:32) complex                        
  
 executed on             LinuxIFC date 2018.01.11  15:45:20
 running on    1 total cores
 distrk:  each k-point on    1 cores,    1 groups
 distr:  one band on NCORES_PER_BAND=   1 cores,    1 groups


--------------------------------------------------------------------------------------------------------


 INCAR:
 POTCAR:    PAW_PBE C 08Apr2002                   
 POTCAR:    PAW_PBE H 15Jun2001                   
 POTCAR:    PAW_PBE C 08Apr2002                   
   VRHFIN =C: s2p2                                                              
   LEXCH  = PE                                                                  
   EATOM  =   147.1560 eV,   10.8157 Ry                                         
                                                                                
   TITEL  = PAW_PBE C 08Apr2002                                                 
   LULTRA =        F    use ultrasoft PP ?                                      
   IUNSCR =        1    unscreen: 0-lin 1-nonlin 2-no                           
   RPACOR =    1.200    partial core radius                                     
   POMASS =   12.011; ZVAL   =    4.000    mass and valenz                      
   RCORE  =    1.500    outmost cutoff radius                                   
   RWIGS  =    1.630; RWIGS  =    0.863    wigner-seitz radius (au A)           
   ENMAX  =  400.000; ENMIN  =  300.000 eV                                      
   ICORE  =        2    local potential                                         
   LCOR   =        T    correct aug charges                                     
   LPAW   =        T    paw PP                                                  
   EAUG   =  644.873                                                            
   DEXC   =    0.000                                                            
   RMAX   =    1.529    core radius for proj-oper                               
   RAUG   =    1.300    factor for augmentation sphere                          
   RDEP   =    1.501    radius for radial grids                                 
   RDEPT  =    1.300    core radius for aug-charge                              
                                                                                
   Atomic configuration                                                         
    4 entries                                                                   
     n  l   j            E        occ.                                          
     1  0  0.50      -273.3789   2.0000                                         
     2  0  0.50       -13.7508   2.0000                                         
     2  1  0.50        -5.2854   2.0000                                         
     3  2  1.50        -5.4423   0.0000                                         
   Description                                                                  
     l       E           TYP  RCUT    TYP  RCUT                                 
     0    -13.7508458     23  1.200                                             
     0     -8.2022199     23  1.200                                             
     1     -5.2854383     23  1.500                                             
     1     34.0145650     23  1.500                                             
     2     -5.4423304      7  1.500                                             
  local pseudopotential read in
  partial core-charges read in
  partial kinetic energy density read in
  atomic valenz-charges read in
  non local Contribution for L=           0  read in
    real space projection operators read in
  non local Contribution for L=           0  read in
    real space projection operators read in
  non local Contribution for L=           1  read in
    real space projection operators read in
  non local Contribution for L=           1  read in
    real space projection operators read in
    PAW grid and wavefunctions read in
 
   number of l-projection  operators is LMAX  =           4
   number of lm-projection operators is LMMAX =           8
 
 POTCAR:    PAW_PBE H 15Jun2001                   
   VRHFIN =H: ultrasoft test                                                    
   LEXCH  = PE                                                                  
   EATOM  =    12.4884 eV,    0.9179 Ry                                         
                                                                                
   TITEL  = PAW_PBE H 15Jun2001                                                 
   LULTRA =        F    use ultrasoft PP ?                                      
   IUNSCR =        0    unscreen: 0-lin 1-nonlin 2-no                           
   RPACOR =    0.000    partial core radius                                     
   POMASS =    1.000; ZVAL   =    1.000    mass and valenz                      
   RCORE  =    1.100    outmost cutoff radius                                   
   RWIGS  =    0.700; RWIGS  =    0.370    wigner-seitz radius (au A)           
   ENMAX  =  250.000; ENMIN  =  200.000 eV                                      
   RCLOC  =    0.701    cutoff for local pot                                    
   LCOR   =        T    correct aug charges                                     
   LPAW   =        T    paw PP                                                  
   EAUG   =  400.000                                                            
   RMAX   =    1.123    core radius for proj-oper                               
   RAUG   =    1.200    factor for augmentation sphere                          
   RDEP   =    1.112    radius for radial grids                                 
   RDEPT  =    0.926    core radius for aug-charge                              
                                                                                
   Atomic configuration                                                         
    2 entries                                                                   
     n  l   j            E        occ.                                          
     1  0  0.50        -6.4927   1.0000                                         
     2  1  0.50        -3.4015   0.0000                                         
   Description                                                                  
     l       E           TYP  RCUT    TYP  RCUT                                 
     0     -6.4927494     23  1.100                                             
     0      6.8029130     23  1.100                                             
     1     -4.0817478     23  1.100                                             
  local pseudopotential read in
  atomic valenz-charges read in
  non local Contribution for L=           0  read in
    real space projection operators read in
  non local Contribution for L=           0  read in
    real space projection operators read in
  non local Contribution for L=           1  read in
    real space projection operators read in
    PAW grid and wavefunctions read in
 
   number of l-projection  operators is LMAX  =           3
   number of lm-projection operators is LMMAX =           5
 
  PAW_PBE C 08Apr2002                   :
 energy of atom  1       EATOM= -147.1560
 kinetic energy error for atom=    0.2561 (will be added to EATOM!!)
  PAW_PBE H 15Jun2001                   :
 energy of atom  2       EATOM=  -12.4884
 kinetic energy error for atom=    0.0426 (will be added to EATOM!!)
 
 
 POSCAR: New_Crystal                             
  positions in cartesian coordinates
  No initial velocities read in
 exchange correlation table for  LEXCH =        8
   RHO(1)=    0.500       N(1)  =     2000
   RHO(2)=  100.500       N(2)  =     4000
 


--------------------------------------------------------------------------------------------------------


 ion  position               nearest neighbor table
   1  0.500  0.500  0.500-   2 1.09   3 1.09   4 1.09
   2  0.401  0.401  0.401-   1 1.09
   3  0.599  0.599  0.401-   1 1.09
   4  0.401  0.599  0.599-   1 1.09
 

IMPORTANT INFORMATION: All symmetrisations will be switched off!
NOSYMM: (Re-)initialisation of all symmetry stuff for point group C_1.

 
 
 KPOINTS: Auto                                    

Automatic generation of k-mesh.
Space group operators:
 irot       det(A)        alpha          n_x          n_y          n_z        tau_x        tau_y        tau_z
    1     1.000000     0.000001     1.000000     0.000000     0.000000     0.000000     0.000000     0.000000
 
 Subroutine IBZKPT returns following result:
 ===========================================
 
 Found      1 irreducible k-points:
 
 Following reciprocal coordinates:
            Coordinates               Weight
  0.000000  0.000000  0.000000      1.000000
 
 Following cartesian coordinates:
            Coordinates               Weight
  0.000000  0.000000  0.000000      1.000000
 
 
 Subroutine IBZKPT_HF returns following result:
 ==============================================
 
 Found      1 k-points in 1st BZ
 the following      1 k-points will be used (e.g. in the exchange kernel)
 Following reciprocal coordinates:   # in IRBZ
  0.000000  0.000000  0.000000    1.00000000   1 t-inv F


--------------------------------------------------------------------------------------------------------




 Dimension of arrays:
   k-points           NKPTS =      1   k-points in BZ     NKDIM =      1   number of bands    NBANDS=      9
   number of dos      NEDOS =    301   number of ions     NIONS =      4
   non local maximal  LDIM  =      4   non local SUM 2l+1 LMDIM =      8
   total plane-waves  NPLWV =  21952
   max r-space proj   IRMAX =      1   max aug-charges    IRDMAX=   1211
   dimension x,y,z NGX =    28 NGY =   28 NGZ =   28
   dimension x,y,z NGXF=    56 NGYF=   56 NGZF=   56
   support grid    NGXF=    56 NGYF=   56 NGZF=   56
   ions per type =               1   3
 NGX,Y,Z   is equivalent  to a cutoff of   7.33,  7.33,  7.33 a.u.
 NGXF,Y,Z  is equivalent  to a cutoff of  14.66, 14.66, 14.66 a.u.


 I would recommend the setting:
   dimension x,y,z NGX =    27 NGY =   27 NGZ =   27
 SYSTEM =  Screening bandgap                       
 POSCAR =  New_Crystal                             

 Startparameter for this run:
   NWRITE =      2    write-flag & timer
   PREC   = normal    normal or accurate (medium, high low for compatibility)
   ISTART =      1    job   : 0-new  1-cont  2-samecut
   ICHARG =      0    charge: 1-file 2-atom 10-const
   ISPIN  =      2    spin polarized calculation?
   LNONCOLLINEAR =      F non collinear calculations
   LSORBIT =      F    spin-orbit coupling
   INIWAV =      1    electr: 0-lowe 1-rand  2-diag
   LASPH  =      F    aspherical Exc in radial PAW
   METAGGA=      F    non-selfconsistent MetaGGA calc.

 Electronic Relaxation 1
   ENCUT  =  300.0 eV  22.05 Ry    4.70 a.u.   8.97  8.97  8.97*2*pi/ulx,y,z
   ENINI  =  300.0     initial cutoff
   ENAUG  =  644.9 eV  augmentation charge cutoff
   NELM   =     60;   NELMIN=  2; NELMDL=  0     # of ELM steps 
   EDIFF  = 0.1E-03   stopping-criterion for ELM
   LREAL  =      F    real-space projection
   NLSPLINE    = F    spline interpolate recip. space projectors
   LCOMPAT=      F    compatible to vasp.4.4
   GGA_COMPAT  = T    GGA compatible to vasp.4.4-vasp.4.6
   LMAXPAW     = -100 max onsite density
   LMAXMIX     =    2 max onsite mixed and CHGCAR
   VOSKOWN=      0    Vosko Wilk Nusair interpolation
   ROPT   =    0.00000   0.00000
 Ionic relaxation
   EDIFFG = 0.1E-02   stopping-criterion for IOM
   NSW    =      0    number of steps for IOM
   NBLOCK =      1;   KBLOCK =      1    inner block; outer block 
   IBRION =     -1    ionic relax: 0-MD 1-quasi-New 2-CG
   NFREE  =      0    steps in history (QN), initial steepest desc. (CG)
   ISIF   =      2    stress and relaxation
   IWAVPR =     10    prediction:  0-non 1-charg 2-wave 3-comb
   ISYM   =      0    0-nonsym 1-usesym 2-fastsym
   LCORR  =      T    Harris-Foulkes like correction to forces

   POTIM  = 0.5000    time-step for ionic-motion
   TEIN   =    0.0    initial temperature
   TEBEG  =    0.0;   TEEND  =   0.0 temperature during run
   SMASS  =  -3.00    Nose mass-parameter (am)
   estimated Nose-frequenzy (Omega)   =  0.10E-29 period in steps =****** mass=  -0.921E-27a.u.
   SCALEE = 1.0000    scale energy and forces
   NPACO  =    256;   APACO  = 16.0  distance and # of slots for P.C.
   PSTRESS=    0.0 pullay stress

  Mass of Ions in am
   POMASS =  12.01  1.00
  Ionic Valenz
   ZVAL   =   4.00  1.00
  Atomic Wigner-Seitz radii
   RWIGS  =  -1.00 -1.00
  virtual crystal weights 
   VCA    =   1.00  1.00
   NELECT =       7.0000    total number of electrons
   NUPDOWN=      -1.0000    fix difference up-down

 DOS related values:
   EMIN   =  10.00;   EMAX   =-10.00  energy-range for DOS
   EFERMI =   0.00
   ISMEAR =     0;   SIGMA  =   0.05  broadening in eV -4-tet -1-fermi 0-gaus

 Electronic relaxation 2 (details)
   IALGO  =     38    algorithm
   LDIAG  =      T    sub-space diagonalisation (order eigenvalues)
   LSUBROT=      F    optimize rotation matrix (better conditioning)
   TURBO    =      0    0=normal 1=particle mesh
   IRESTART =      0    0=no restart 2=restart with 2 vectors
   NREBOOT  =      0    no. of reboots
   NMIN     =      0    reboot dimension
   EREF     =   0.00    reference energy to select bands
   IMIX   =      4    mixing-type and parameters
     AMIX     =   0.40;   BMIX     =  1.00
     AMIX_MAG =   1.60;   BMIX_MAG =  1.00
     AMIN     =   0.10
     WC   =   100.;   INIMIX=   1;  MIXPRE=   1;  MAXMIX= -45

 Intra band minimization:
   WEIMIN = 0.0000     energy-eigenvalue tresh-hold
   EBREAK =  0.28E-05  absolut break condition
   DEPER  =   0.30     relativ break condition  

   TIME   =   0.40     timestep for ELM

  volume/ion in A,a.u.               =      64.01       431.97
  Fermi-wavevector in a.u.,A,eV,Ry     =   0.493174  0.931964  3.309221  0.243221
  Thomas-Fermi vector in A             =   1.497456
 
 Write flags
   LWAVE  =      T    write WAVECAR
   LCHARG =      T    write CHGCAR
   LVTOT  =      F    write LOCPOT, total local potential
   LVHAR  =      F    write LOCPOT, Hartree potential only
   LELF   =      F    write electronic localiz. function (ELF)
   LORBIT =     12    0 simple, 1 ext, 2 COOP (PROOUT)


 Dipole corrections
   LMONO  =      F    monopole corrections only (constant potential shift)
   LDIPOL =      F    correct potential (dipole corrections)
   IDIPOL =      0    1-x, 2-y, 3-z, 4-all directions 
   EPSILON=  1.0000000 bulk dielectric constant

 Exchange correlation treatment:
   GGA     =    PE    GGA type
   LEXCH   =     8    internal setting for exchange type
   VOSKOWN=      0    Vosko Wilk Nusair interpolation
   LHFCALC =     F    Hartree Fock is set to
   LHFONE  =     F    Hartree Fock one center treatment
   AEXX    =    0.0000 exact exchange contribution

 Linear response parameters
   LEPSILON=     F    determine dielectric tensor
   LRPA    =     F    only Hartree local field effects (RPA)
   LNABLA  =     F    use nabla operator in PAW spheres
   LVEL    =     F    velocity operator in full k-point grid
   LINTERFAST=   F  fast interpolation
   KINTER  =     0    interpolate to denser k-point grid
   CSHIFT  =0.1000    complex shift for real part using Kramers Kronig
   OMEGAMAX=  -1.0    maximum frequency
   DEG_THRESHOLD= 0.2000000E-02 threshold for treating states as degnerate
   RTIME   =    0.100 relaxation time in fs

 Orbital magnetization related:
   ORBITALMAG=     F  switch on orbital magnetization
   LCHIMAG   =     F  perturbation theory with respect to B field
   DQ        =  0.001000  dq finite difference perturbation B field



--------------------------------------------------------------------------------------------------------


 Static calculation
 charge density and potential will be updated during run
 spin polarized calculation
 Variant of blocked Davidson
 Davidson routine will perform the subspace rotation
 perform sub-space diagonalisation
    after iterative eigenvector-optimisation
 modified Broyden-mixing scheme, WC =      100.0
 initial mixing is a Kerker type mixing with AMIX =  0.4000 and BMIX =      1.0000
 Hartree-type preconditioning will be used
 using additional bands            5
 reciprocal scheme for non local part
 use partial core corrections
 calculate Harris-corrections to forces 
   (improved forces if not selfconsistent)
 use gradient corrections 
 use of overlap-Matrix (Vanderbilt PP)
 Gauss-broadening in eV      SIGMA  =   0.05


--------------------------------------------------------------------------------------------------------


  energy-cutoff  :      300.00
  volume of cell :      256.05
      direct lattice vectors                 reciprocal lattice vectors
     6.350000000  0.000000000  0.000000000     0.157480315  0.000000000  0.000000000
     0.000000000  6.350000000  0.000000000     0.000000000  0.157480315  0.000000000
     0.000000000  0.000000000  6.350000000     0.000000000  0.000000000  0.157480315

  length of vectors
     6.350000000  6.350000000  6.350000000     0.157480315  0.157480315  0.157480315


 
 old parameters found on file WAVECAR:
  energy-cutoff  :      300.00
  volume of cell :      256.05
      direct lattice vectors                 reciprocal lattice vectors
     6.350000000  0.000000000  0.000000000     0.157480315  0.000000000  0.000000000
     0.000000000  6.350000000  0.000000000     0.000000000  0.157480315  0.000000000
     0.000000000  0.000000000  6.350000000     0.000000000  0.000000000  0.157480315

  length of vectors

 
 k-points in units of 2pi/SCALE and weight: Auto                                    
   0.00000000  0.00000000  0.00000000       1.000
 
 k-points in reciprocal lattice and weights: Auto                                    
   0.00000000  0.00000000  0.00000000       1.000
 
 position of ions in fractional coordinates (direct lattice) 
   0.50000000  0.50000000  0.50000000
   0.40098670  0.40098670  0.40098670
   0.59901330  0.59901330  0.40098670
   0.40098670  0.59901330  0.59901330
 
 position of ions in cartesian coordinates  (Angst):
   3.17500000  3.17500000  3.17500000
   2.54626556  2.54626556  2.54626556
   3.80373444  3.80373444  2.54626556
   2.54626556  3.80373444  3.80373444
 


--------------------------------------------------------------------------------------------------------


 k-point  1 :   0.0000 0.0000 0.0000  plane waves:    2969

 maximum and minimum number of plane-waves per node :      2969     2969

 maximum number of plane-waves:      2969
 maximum index in each direction: 
   IXMAX=    8   IYMAX=    8   IZMAX=    8
   IXMIN=   -8   IYMIN=   -8   IZMIN=   -8

 WARNING: aliasing errors must be expected set NGX to  34 to avoid them
 WARNING: aliasing errors must be expected set NGY to  34 to avoid them
 WARNING: aliasing errors must be expected set NGZ to  34 to avoid them
 aliasing errors are usually negligible using standard VASP settings
 and one can safely disregard these warnings

 serial   3D FFT for wavefunctions
 parallel 3D FFT for charge:
    minimum data exchange during FFTs selected (reduces bandwidth)


 total amount of memory used by VASP on root node    70080. kBytes
========================================================================

   base      :      30000. kBytes
   nonl-proj :        570. kBytes
   fftplans  :      11932. kBytes
   grid      :      26693. kBytes
   one-center:         24. kBytes
   wavefun   :        861. kBytes
 
     INWAV:  cpu time    0.0040: real time    0.0038
 Broyden mixing: mesh for mixing (old mesh)
   NGX = 17   NGY = 17   NGZ = 17
  (NGX  = 56   NGY  = 56   NGZ  = 56)
  gives a total of   4913 points

 charge density for first step will be calculated from the start-wavefunctions


--------------------------------------------------------------------------------------------------------


 Maximum index for augmentation-charges         1021 (set IRDMAX)


--------------------------------------------------------------------------------------------------------


 initial charge from wavefunction
 First call to EWALD:  gamma=   0.279
 Maximum number of real-space cells 3x 3x 3
 Maximum number of reciprocal cells 3x 3x 3

 FEWALD executed in parallel
    FEWALD:  cpu time    0.0410: real time    0.0018


----------------------------------------- Iteration    1(   1)  ---------------------------------------


    POTLOK:  cpu time    5.1572: real time    0.4032
    SETDIJ:  cpu time    0.0190: real time    0.0187
     EDDAV:  cpu time    1.3328: real time    0.0718
       DOS:  cpu time    0.0030: real time    0.0002
    CHARGE:  cpu time    3.6114: real time    0.1644
    MIXING:  cpu time    0.1520: real time    0.0069
    --------------------------------------------
      LOOP:  cpu time   10.4984: real time    0.6754

 eigenvalue-minimisations  :    36
 total energy-change (2. order) :-0.1705407E+02  (-0.7724475E-06)
 number of electron       7.0000052 magnetization      -0.0736510
 augmentation part        0.1340531 magnetization       0.0152227

 Broyden mixing:
  rms(total) = 0.40250E-01    rms(broyden)= 0.40132E-01
  rms(prec ) = 0.40132E-01
  weight for this iteration     100.00

 Free energy of the ion-electron system (eV)
  ---------------------------------------------------
  alpha Z        PSCENC =         0.76124932
  Ewald energy   TEWEN  =        28.04274487
  -Hartree energ DENC   =      -176.04826495
  -exchange      EXHF   =         0.00000000
  -V(xc)+E(xc)   XCENC  =        21.21729853
  PAW double counting   =       353.21185966     -353.89154192
  entropy T*S    EENTRO =        -0.02802107
  eigenvalues    EBANDS =       -74.55662191
  atomic energy  EATOM  =       184.23722981
  Solvation  Ediel_sol  =         0.00000000
  ---------------------------------------------------
  free energy    TOTEN  =       -17.05406765 eV

  energy without entropy =      -17.02604658  energy(sigma->0) =      -17.04005711


--------------------------------------------------------------------------------------------------------




----------------------------------------- Iteration    1(   2)  ---------------------------------------


    POTLOK:  cpu time    3.5685: real time    0.3398
    SETDIJ:  cpu time    0.0190: real time    0.0188
     EDDAV:  cpu time    1.0408: real time    0.0540
       DOS:  cpu time    0.0010: real time    0.0001
    CHARGE:  cpu time    0.3040: real time    0.0138
    MIXING:  cpu time    0.1610: real time    0.0074
    --------------------------------------------
      LOOP:  cpu time    5.2842: real time    0.4429

 eigenvalue-minimisations  :    36
 total energy-change (2. order) :-0.9231502E-01  (-0.1347127E-02)
 number of electron       7.0000052 magnetization       0.0073196
 augmentation part        0.1346157 magnetization       0.9713134

 Broyden mixing:
  rms(total) = 0.40421E+00    rms(broyden)= 0.40291E+00
  rms(prec ) = 0.40297E+00
  weight for this iteration     100.00

 eigenvalues of (default mixing * dielectric matrix)
  average eigenvalue GAMMA=   0.1110
  0.1110

 Free energy of the ion-electron system (eV)
  ---------------------------------------------------
  alpha Z        PSCENC =         0.76124932
  Ewald energy   TEWEN  =        28.04274487
  -Hartree energ DENC   =      -176.04880578
  -exchange      EXHF   =         0.00000000
  -V(xc)+E(xc)   XCENC  =        21.22772777
  PAW double counting   =       353.21029632     -353.88981072
  entropy T*S    EENTRO =        -0.00001436
  eigenvalues    EBANDS =       -74.68699989
  atomic energy  EATOM  =       184.23722981
  Solvation  Ediel_sol  =         0.00000000
  ---------------------------------------------------
  free energy    TOTEN  =       -17.14638267 eV

  energy without entropy =      -17.14636830  energy(sigma->0) =      -17.14637549


--------------------------------------------------------------------------------------------------------




----------------------------------------- Iteration    1(   3)  ---------------------------------------


    POTLOK:  cpu time    7.0439: real time    0.3888
    SETDIJ:  cpu time    0.0190: real time    0.0188
     EDDAV:  cpu time    1.9307: real time    0.0926
       DOS:  cpu time    0.0010: real time    0.0001
    CHARGE:  cpu time    0.3649: real time    0.0160
    MIXING:  cpu time    0.1850: real time    0.0081
    --------------------------------------------
      LOOP:  cpu time    9.7255: real time    0.5326

 eigenvalue-minimisations  :    36
 total energy-change (2. order) : 0.1655798E+00  (-0.1628440E-02)
 number of electron       7.0000052 magnetization       0.0102330
 augmentation part        0.1341400 magnetization       0.0115511

 Broyden mixing:
  rms(total) = 0.28629E-01    rms(broyden)= 0.54541E-02
  rms(prec ) = 0.59131E-02
  weight for this iteration     100.00
  WARNING: grid for Broyden might be to small

 eigenvalues of (default mixing * dielectric matrix)
  average eigenvalue GAMMA=   0.1263
  0.1410  0.1116

 Free energy of the ion-electron system (eV)
  ---------------------------------------------------
  alpha Z        PSCENC =         0.76124932
  Ewald energy   TEWEN  =        28.04274487
  -Hartree energ DENC   =      -176.04029402
  -exchange      EXHF   =         0.00000000
  -V(xc)+E(xc)   XCENC  =        21.27042723
  PAW double counting   =       353.17401382     -353.85361394
  entropy T*S    EENTRO =        -0.02820944
  eigenvalues    EBANDS =       -74.54435055
  atomic energy  EATOM  =       184.23722981
  Solvation  Ediel_sol  =         0.00000000
  ---------------------------------------------------
  free energy    TOTEN  =       -16.98080289 eV

  energy without entropy =      -16.95259345  energy(sigma->0) =      -16.96669817


--------------------------------------------------------------------------------------------------------




----------------------------------------- Iteration    1(   4)  ---------------------------------------


    POTLOK:  cpu time    3.1255: real time    0.4579
    SETDIJ:  cpu time    0.0190: real time    0.0190
     EDDAV:  cpu time    1.1038: real time    0.0577
       DOS:  cpu time    0.0020: real time    0.0001
    CHARGE:  cpu time    0.3040: real time    0.0139
    MIXING:  cpu time    0.1880: real time    0.0086
    --------------------------------------------
      LOOP:  cpu time    6.0951: real time    0.6187

 eigenvalue-minimisations  :    36
 total energy-change (2. order) :-0.7200653E-01  (-0.3004268E-03)
 number of electron       7.0000052 magnetization      -0.0010306
 augmentation part        0.1340586 magnetization      -0.2513261

 Broyden mixing:
  rms(total) = 0.11338E+00    rms(broyden)= 0.11240E+00
  rms(prec ) = 0.11240E+00
  weight for this iteration     100.00

 eigenvalues of (default mixing * dielectric matrix)
  average eigenvalue GAMMA=   0.3167
  0.1086  0.4207  0.4207

 Free energy of the ion-electron system (eV)
  ---------------------------------------------------
  alpha Z        PSCENC =         0.76124932
  Ewald energy   TEWEN  =        28.04274487
  -Hartree energ DENC   =      -176.06583435
  -exchange      EXHF   =         0.00000000
  -V(xc)+E(xc)   XCENC  =        21.22016986
  PAW double counting   =       353.27887629     -353.95861755
  entropy T*S    EENTRO =        -0.02670357
  eigenvalues    EBANDS =       -74.54192410
  atomic energy  EATOM  =       184.23722981
  Solvation  Ediel_sol  =         0.00000000
  ---------------------------------------------------
  free energy    TOTEN  =       -17.05280942 eV

  energy without entropy =      -17.02610584  energy(sigma->0) =      -17.03945763


--------------------------------------------------------------------------------------------------------




----------------------------------------- Iteration    1(   5)  ---------------------------------------


    POTLOK:  cpu time    6.4370: real time    0.2895
    SETDIJ:  cpu time    0.4179: real time    0.0186
     EDDAV:  cpu time    1.3848: real time    0.0617
       DOS:  cpu time    0.0020: real time    0.0001
    CHARGE:  cpu time    0.3160: real time    0.0142
    MIXING:  cpu time    0.2030: real time    0.0090
    --------------------------------------------
      LOOP:  cpu time    9.0046: real time    0.4047

 eigenvalue-minimisations  :    36
 total energy-change (2. order) : 0.1382850E-02  (-0.7053926E-04)
 number of electron       7.0000052 magnetization       0.0021703
 augmentation part        0.1340500 magnetization       0.0212806

 Broyden mixing:
  rms(total) = 0.10169E-01    rms(broyden)= 0.77851E-02
  rms(prec ) = 0.78105E-02
  weight for this iteration     100.00
  WARNING: grid for Broyden might be to small

 eigenvalues of (default mixing * dielectric matrix)
  average eigenvalue GAMMA=   0.3726
  0.1087  0.5217  0.5217  0.3383

 Free energy of the ion-electron system (eV)
  ---------------------------------------------------
  alpha Z        PSCENC =         0.76124932
  Ewald energy   TEWEN  =        28.04274487
  -Hartree energ DENC   =      -176.07080677
  -exchange      EXHF   =         0.00000000
  -V(xc)+E(xc)   XCENC  =        21.22049563
  PAW double counting   =       353.29299245     -353.97280455
  entropy T*S    EENTRO =        -0.02820077
  eigenvalues    EBANDS =       -74.53432655
  atomic energy  EATOM  =       184.23722981
  Solvation  Ediel_sol  =         0.00000000
  ---------------------------------------------------
  free energy    TOTEN  =       -17.05142657 eV

  energy without entropy =      -17.02322580  energy(sigma->0) =      -17.03732618


--------------------------------------------------------------------------------------------------------




----------------------------------------- Iteration    1(   6)  ---------------------------------------


    POTLOK:  cpu time    7.0199: real time    0.3154
    SETDIJ:  cpu time    0.4089: real time    0.0187
     EDDAV:  cpu time    1.4698: real time    0.0711
       DOS:  cpu time    0.0020: real time    0.0001
    CHARGE:  cpu time    0.3010: real time    0.0138
    MIXING:  cpu time    0.1960: real time    0.0094
    --------------------------------------------
      LOOP:  cpu time    9.6455: real time    0.4398

 eigenvalue-minimisations  :    36
 total energy-change (2. order) :-0.2524666E-02  (-0.2245807E-04)
 number of electron       7.0000052 magnetization       0.0002570
 augmentation part        0.1340416 magnetization      -0.0628990

 Broyden mixing:
  rms(total) = 0.28637E-01    rms(broyden)= 0.28591E-01
  rms(prec ) = 0.28596E-01
  weight for this iteration     100.00

 eigenvalues of (default mixing * dielectric matrix)
  average eigenvalue GAMMA=   0.4531
  0.1087  0.6901  0.6901  0.3883  0.3883

 Free energy of the ion-electron system (eV)
  ---------------------------------------------------
  alpha Z        PSCENC =         0.76124932
  Ewald energy   TEWEN  =        28.04274487
  -Hartree energ DENC   =      -176.06434752
  -exchange      EXHF   =         0.00000000
  -V(xc)+E(xc)   XCENC  =        21.21856948
  PAW double counting   =       353.25997193     -353.93971488
  entropy T*S    EENTRO =        -0.02811440
  eigenvalues    EBANDS =       -74.54153986
  atomic energy  EATOM  =       184.23722981
  Solvation  Ediel_sol  =         0.00000000
  ---------------------------------------------------
  free energy    TOTEN  =       -17.05395123 eV

  energy without entropy =      -17.02583684  energy(sigma->0) =      -17.03989404


--------------------------------------------------------------------------------------------------------




----------------------------------------- Iteration    1(   7)  ---------------------------------------


    POTLOK:  cpu time    6.6340: real time    0.3031
    SETDIJ:  cpu time    0.2610: real time    0.0185
     EDDAV:  cpu time    2.0067: real time    0.0984
       DOS:  cpu time    0.0010: real time    0.0001
    CHARGE:  cpu time    0.2940: real time    0.0138
    MIXING:  cpu time    0.2100: real time    0.0100
    --------------------------------------------
      LOOP:  cpu time    9.5905: real time    0.4528

 eigenvalue-minimisations  :    64
 total energy-change (2. order) : 0.2123647E-03  (-0.1465360E-05)
 number of electron       7.0000052 magnetization       0.0001220
 augmentation part        0.1340440 magnetization      -0.0164004

 Broyden mixing:
  rms(total) = 0.78707E-02    rms(broyden)= 0.77566E-02
  rms(prec ) = 0.77666E-02
  weight for this iteration     100.00

 eigenvalues of (default mixing * dielectric matrix)
  average eigenvalue GAMMA=   0.5664
  0.9315  0.9315  0.1087  0.5241  0.5241  0.3785

 Free energy of the ion-electron system (eV)
  ---------------------------------------------------
  alpha Z        PSCENC =         0.76124932
  Ewald energy   TEWEN  =        28.04274487
  -Hartree energ DENC   =      -176.06088490
  -exchange      EXHF   =         0.00000000
  -V(xc)+E(xc)   XCENC  =        21.21847399
  PAW double counting   =       353.25409292     -353.93381579
  entropy T*S    EENTRO =        -0.02820298
  eigenvalues    EBANDS =       -74.54462612
  atomic energy  EATOM  =       184.23722981
  Solvation  Ediel_sol  =         0.00000000
  ---------------------------------------------------
  free energy    TOTEN  =       -17.05373887 eV

  energy without entropy =      -17.02553589  energy(sigma->0) =      -17.03963738


--------------------------------------------------------------------------------------------------------




----------------------------------------- Iteration    1(   8)  ---------------------------------------


    POTLOK:  cpu time    5.7661: real time    0.4140
    SETDIJ:  cpu time    0.0190: real time    0.0185
     EDDAV:  cpu time    4.5943: real time    0.2087
       DOS:  cpu time    0.0000: real time    0.0001
    CHARGE:  cpu time    0.3090: real time    0.0136
    MIXING:  cpu time    0.2520: real time    0.0105
    --------------------------------------------
      LOOP:  cpu time   11.1183: real time    0.6741

 eigenvalue-minimisations  :    36
 total energy-change (2. order) :-0.1055748E-03  (-0.7027822E-06)
 number of electron       7.0000052 magnetization       0.0003305
 augmentation part        0.1340452 magnetization      -0.0067141

 Broyden mixing:
  rms(total) = 0.33905E-02    rms(broyden)= 0.33337E-02
  rms(prec ) = 0.33425E-02
  weight for this iteration     100.00

 eigenvalues of (default mixing * dielectric matrix)
  average eigenvalue GAMMA=   0.6173
  1.0322  1.0322  0.1087  0.7384  0.5218  0.5218  0.3663

 Free energy of the ion-electron system (eV)
  ---------------------------------------------------
  alpha Z        PSCENC =         0.76124932
  Ewald energy   TEWEN  =        28.04274487
  -Hartree energ DENC   =      -176.05650292
  -exchange      EXHF   =         0.00000000
  -V(xc)+E(xc)   XCENC  =        21.21800259
  PAW double counting   =       353.24188100     -353.92157790
  entropy T*S    EENTRO =        -0.02820830
  eigenvalues    EBANDS =       -74.54866292
  atomic energy  EATOM  =       184.23722981
  Solvation  Ediel_sol  =         0.00000000
  ---------------------------------------------------
  free energy    TOTEN  =       -17.05384444 eV

  energy without entropy =      -17.02563615  energy(sigma->0) =      -17.03974030


--------------------------------------------------------------------------------------------------------




----------------------------------------- Iteration    1(   9)  ---------------------------------------


    POTLOK:  cpu time    3.7964: real time    0.3546
    SETDIJ:  cpu time    0.0180: real time    0.0185
     EDDAV:  cpu time    2.3026: real time    0.1100
       DOS:  cpu time    0.0010: real time    0.0001
    --------------------------------------------
      LOOP:  cpu time    6.9699: real time    0.5205

 eigenvalue-minimisations  :    34
 total energy-change (2. order) :-0.3304048E-04  (-0.2177209E-06)
 number of electron       7.0000052 magnetization       0.0003305
 augmentation part        0.1340452 magnetization      -0.0067141

 Free energy of the ion-electron system (eV)
  ---------------------------------------------------
  alpha Z        PSCENC =         0.76124932
  Ewald energy   TEWEN  =        28.04274487
  -Hartree energ DENC   =      -176.05372388
  -exchange      EXHF   =         0.00000000
  -V(xc)+E(xc)   XCENC  =        21.21775085
  PAW double counting   =       353.23220125     -353.91188434
  entropy T*S    EENTRO =        -0.02820674
  eigenvalues    EBANDS =       -74.55123862
  atomic energy  EATOM  =       184.23722981
  Solvation  Ediel_sol  =         0.00000000
  ---------------------------------------------------
  free energy    TOTEN  =       -17.05387748 eV

  energy without entropy =      -17.02567074  energy(sigma->0) =      -17.03977411


--------------------------------------------------------------------------------------------------------




 average (electrostatic) potential at core
  the test charge radii are     0.6991  0.5201
  (the norm of the test charge is              1.0001)
       1 -58.7733       2 -41.5932       3 -41.5932       4 -41.5932
 
 
 
 E-fermi :  -4.6815     XC(G=0):  -2.1735     alpha+bet : -0.7149


 spin component 1

 k-point     1 :       0.0000    0.0000    0.0000
  band No.  band energies     occupation 
      1     -16.3549      1.00000
      2      -9.2900      1.00000
      3      -9.2900      1.00000
      4      -4.6820      0.50556
      5      -0.7970      0.00000
      6       2.4237      0.00000
      7       2.4237      0.00000
      8       2.8051      0.00000
      9       2.8051      0.00000

 spin component 2

 k-point     1 :       0.0000    0.0000    0.0000
  band No.  band energies     occupation 
      1     -16.3547      1.00000
      2      -9.2900      1.00000
      3      -9.2900      1.00000
      4      -4.6810      0.49444
      5      -0.7966      0.00000
      6       2.4247      0.00000
      7       2.4247      0.00000
      8       2.8051      0.00000
      9       2.8051      0.00000


--------------------------------------------------------------------------------------------------------


 soft charge-density along one line, spin component           1
         0         1         2         3         4         5         6         7         8         9
 total charge-density along one line
 
 soft charge-density along one line, spin component           2
         0         1         2         3         4         5         6         7         8         9
 total charge-density along one line
 
 pseudopotential strength for first ion, spin component:           1
 10.230   0.000  13.605   0.000   0.001   0.000  -0.001   0.000  -0.001   0.000  -0.004   0.000   0.004   0.000   0.004   0.000
 13.605   0.000  18.093   0.000   0.001   0.000  -0.001   0.000  -0.001   0.000  -0.005   0.000   0.005   0.000   0.005   0.000
  0.001   0.000   0.001   0.000  -4.389   0.000   0.002   0.000   0.002   0.000   8.595   0.000  -0.005   0.000  -0.005   0.000
 -0.001   0.000  -0.001   0.000   0.002   0.000  -4.389   0.000  -0.002   0.000  -0.005   0.000   8.595   0.000   0.005   0.000
 -0.001   0.000  -0.001   0.000   0.002   0.000  -0.002   0.000  -4.389   0.000  -0.005   0.000   0.005   0.000   8.595   0.000
 -0.004   0.000  -0.005   0.000   8.595   0.000  -0.005   0.000  -0.005   0.000 -18.974   0.000   0.013   0.000   0.013   0.000
  0.004   0.000   0.005   0.000  -0.005   0.000   8.595   0.000   0.005   0.000   0.013   0.000 -18.974   0.000  -0.013   0.000
  0.004   0.000   0.005   0.000  -0.005   0.000   0.005   0.000   8.595   0.000   0.013   0.000  -0.013   0.000 -18.974   0.000
 pseudopotential strength for first ion, spin component:           2
 10.230   0.000  13.605   0.000   0.001   0.000  -0.001   0.000  -0.001   0.000  -0.004   0.000   0.004   0.000   0.004   0.000
 13.605   0.000  18.093   0.000   0.001   0.000  -0.001   0.000  -0.001   0.000  -0.005   0.000   0.005   0.000   0.005   0.000
  0.001   0.000   0.001   0.000  -4.389   0.000   0.002   0.000   0.002   0.000   8.595   0.000  -0.005   0.000  -0.005   0.000
 -0.001   0.000  -0.001   0.000   0.002   0.000  -4.389   0.000  -0.002   0.000  -0.005   0.000   8.595   0.000   0.005   0.000
 -0.001   0.000  -0.001   0.000   0.002   0.000  -0.002   0.000  -4.389   0.000  -0.005   0.000   0.005   0.000   8.595   0.000
 -0.004   0.000  -0.005   0.000   8.595   0.000  -0.005   0.000  -0.005   0.000 -18.974   0.000   0.012   0.000   0.012   0.000
  0.004   0.000   0.005   0.000  -0.005   0.000   8.595   0.000   0.005   0.000   0.012   0.000 -18.974   0.000  -0.012   0.000
  0.004   0.000   0.005   0.000  -0.005   0.000   0.005   0.000   8.595   0.000   0.012   0.000  -0.012   0.000 -18.974   0.000
 total augmentation occupancy for first ion, spin component:           1
  4.948  -1.726   0.397  -0.397  -0.397   0.055  -0.055  -0.055
 -1.726   0.649  -0.262   0.262   0.262  -0.028   0.028   0.028
  0.397  -0.262   1.549   0.242   0.242   0.152   0.036   0.036
 -0.397   0.262   0.242   1.549  -0.242   0.036   0.152  -0.036
 -0.397   0.262   0.242  -0.242   1.549   0.036  -0.036   0.152
  0.055  -0.028   0.152   0.036   0.036   0.015   0.004   0.004
 -0.055   0.028   0.036   0.152  -0.036   0.004   0.015  -0.004
 -0.055   0.028   0.036  -0.036   0.152   0.004  -0.004   0.015
 total augmentation occupancy for first ion, spin component:           2
  0.000  -0.000   0.000  -0.000  -0.000   0.000  -0.000  -0.000
 -0.000   0.000  -0.001   0.001   0.001  -0.000   0.000   0.000
  0.000  -0.001   0.002  -0.002  -0.002   0.000  -0.000  -0.000
 -0.000   0.001  -0.002   0.002   0.002  -0.000   0.000   0.000
 -0.000   0.001  -0.002   0.002   0.002  -0.000   0.000   0.000
  0.000  -0.000   0.000  -0.000  -0.000   0.000  -0.000  -0.000
 -0.000   0.000  -0.000   0.000   0.000  -0.000   0.000   0.000
 -0.000   0.000  -0.000   0.000   0.000  -0.000   0.000   0.000


------------------------ aborting loop because EDIFF is reached ----------------------------------------


 


 total charge     
 
# of ion     s       p       d       tot
----------------------------------------
  1        0.851   1.653   0.000   2.504
  2        0.647   0.041   0.000   0.688
  3        0.647   0.041   0.000   0.688
  4        0.647   0.041   0.000   0.688
------------------------------------------------
tot        2.790   1.777   0.000   4.567
 


 magnetization (x)
 
# of ion     s       p       d       tot
----------------------------------------
  1        0.000   0.004   0.000   0.005
  2        0.000   0.000   0.000   0.000
  3        0.000   0.000   0.000   0.000
  4        0.000   0.000   0.000   0.000
------------------------------------------------
tot        0.001   0.004   0.000   0.005
 
    CHARGE:  cpu time    0.0140: real time    0.0140
    FORLOC:  cpu time    0.0190: real time    0.0191
    FORNL :  cpu time    0.0210: real time    0.0201
    STRESS:  cpu time    0.0650: real time    0.0652
    FORCOR:  cpu time    0.2850: real time    0.2850
    FORHAR:  cpu time    0.0480: real time    0.0471
    MIXING:  cpu time    0.0110: real time    0.0114
    OFIELD:  cpu time    0.0000: real time    0.0001

  FORCE on cell =-STRESS in cart. coord.  units (eV):
  Direction    XX          YY          ZZ          XY          YZ          ZX
  --------------------------------------------------------------------------------------
  Alpha Z     0.76125     0.76125     0.76125
  Ewald       9.34756     9.34756     9.34756    20.59946    20.59946   -20.59946
  Hartree    58.68205    58.68205    58.68204     6.72717     6.72717    -6.72718
  E(xc)     -23.47856   -23.47856   -23.47856     0.12301     0.12301    -0.12301
  Local    -124.42454  -124.42455  -124.42453   -25.74605   -25.74605    25.74606
  n-local   -11.50692   -11.50692   -11.50692    -0.48919    -0.48919     0.48919
  augment     0.08037     0.08037     0.08037    -0.00158    -0.00158     0.00158
  Kinetic    89.27969    89.27969    89.27968    -0.71825    -0.71826     0.71827
  Fock        0.00000     0.00000     0.00000     0.00000     0.00000     0.00000
  -------------------------------------------------------------------------------------
  Total      -1.25909    -1.25909    -1.25909     0.49456     0.49456    -0.49455
  in kB      -7.87854    -7.87854    -7.87854     3.09465     3.09461    -3.09456
  external pressure =       -7.88 kB  Pullay stress =        0.00 kB


 VOLUME and BASIS-vectors are now :
 -----------------------------------------------------------------------------
  energy-cutoff  :      300.00
  volume of cell :      256.05
      direct lattice vectors                 reciprocal lattice vectors
     6.350000000  0.000000000  0.000000000     0.157480315  0.000000000  0.000000000
     0.000000000  6.350000000  0.000000000     0.000000000  0.157480315  0.000000000
     0.000000000  0.000000000  6.350000000     0.000000000  0.000000000  0.157480315

  length of vectors
     6.350000000  6.350000000  6.350000000     0.157480315  0.157480315  0.157480315


 FORCES acting on ions
    electron-ion (+dipol)            ewald-force                    non-local-force                 convergence-correction
 -----------------------------------------------------------------------------------------------
   -.264E+02 0.264E+02 -.264E+02   0.275E+02 -.275E+02 0.275E+02   -.213E+01 0.213E+01 -.213E+01   -.368E-03 0.335E-03 -.387E-03
   0.272E+02 0.293E+02 0.272E+02   -.304E+02 -.334E+02 -.304E+02   0.328E+01 0.314E+01 0.328E+01   0.272E-03 0.379E-03 0.270E-03
   -.293E+02 -.272E+02 0.272E+02   0.334E+02 0.304E+02 -.304E+02   -.314E+01 -.328E+01 0.328E+01   -.379E-03 -.273E-03 0.268E-03
   0.272E+02 -.272E+02 -.293E+02   -.304E+02 0.304E+02 0.334E+02   0.328E+01 -.328E+01 -.314E+01   0.269E-03 -.273E-03 -.379E-03
 -----------------------------------------------------------------------------------------------
   -.129E+01 0.129E+01 -.129E+01   0.355E-14 0.000E+00 0.711E-14   0.129E+01 -.129E+01 0.129E+01   -.205E-03 0.167E-03 -.227E-03
 
 
 POSITION                                       TOTAL-FORCE (eV/Angst)
 -----------------------------------------------------------------------------------
      3.17500      3.17500      3.17500        -1.059288      1.059303     -1.059278
      2.54627      2.54627      2.54627         0.068306     -0.922689      0.068304
      3.80373      3.80373      2.54627         0.922678     -0.068308      0.068304
      2.54627      3.80373      3.80373         0.068304     -0.068307      0.922670
 -----------------------------------------------------------------------------------
    total drift:                                0.000268     -0.000241      0.000290


--------------------------------------------------------------------------------------------------------



  FREE ENERGIE OF THE ION-ELECTRON SYSTEM (eV)
  ---------------------------------------------------
  free  energy   TOTEN  =       -17.05387748 eV

  energy  without entropy=      -17.02567074  energy(sigma->0) =      -17.03977411
 


--------------------------------------------------------------------------------------------------------


    POTLOK:  cpu time    0.3070: real time    0.3067


--------------------------------------------------------------------------------------------------------


 writing wavefunctions
     LOOP+:  cpu time   98.8360: real time    7.6377
    4ORBIT:  cpu time    0.0000: real time    0.0000
 


 total charge     
 
# of ion     s       p       d       tot
----------------------------------------
  1        0.851   1.653   0.000   2.504
  2        0.647   0.041   0.000   0.688
  3        0.647   0.041   0.000   0.688
  4        0.647   0.041   0.000   0.688
------------------------------------------------
tot        2.790   1.777   0.000   4.567
 


 magnetization (x)
 
# of ion     s       p       d       tot
----------------------------------------
  1        0.000   0.004   0.000   0.005
  2        0.000   0.000   0.000   0.000
  3        0.000   0.000   0.000   0.000
  4        0.000   0.000   0.000   0.000
------------------------------------------------
tot        0.001   0.004   0.000   0.005
 

 total amount of memory used by VASP on root node    70080. kBytes
========================================================================

   base      :      30000. kBytes
   nonl-proj :        570. kBytes
   fftplans  :      11932. kBytes
   grid      :      26693. kBytes
   one-center:         24. kBytes
   wavefun   :        861. kBytes
 
  
  
 General timing and accounting informations for this job:
 ========================================================
  
                  Total CPU time used (sec):      107.662
                            User time (sec):       90.729
                          System time (sec):       16.932
                         Elapsed time (sec):        9.718
  
                   Maximum memory used (kb):       95200.
                   Average memory used (kb):           0.
  
                          Minor page faults:        67341
                          Major page faults:            0
                 Voluntary context switches:         1094
