Screening bandgap                       
   1.00000000000000     
     6.350000    0.000000    0.000000
     0.000000    6.350000    0.000000
     0.000000    0.000000    6.350000
   C    H 
     1     4
Direct
  0.500000  0.500000  0.500000
  0.400987  0.400987  0.400987
  0.599013  0.599013  0.400987
  0.400987  0.599013  0.599013
  0.599013  0.400987  0.599013
 
   56   56   56
 0.89886E-04 0.16341E-03 0.27113E-03 0.21881E-03 0.52397E-04 -.19627E-04 0.55348E-04 0.11565E-03 0.48612E-04 -.51359E-04
 -.39515E-04 0.91568E-04 0.25149E-03 0.37799E-03 0.44004E-03 0.39574E-03 0.24732E-03 0.92853E-04 0.30729E-04 0.39502E-04
 0.32797E-04 0.26721E-05 0.13037E-04 0.66665E-04 0.87471E-04 0.49499E-04 0.21541E-04 0.47798E-04 0.76405E-04 0.58516E-04
 0.35162E-04 0.56225E-04 0.82649E-04 0.53879E-04 0.12397E-05 -.11407E-06 0.40830E-04 0.52649E-04 0.38483E-04 0.84745E-04
 0.21782E-03 0.34753E-03 0.38419E-03 0.33014E-03 0.22468E-03 0.89275E-04 -.25882E-04 -.37905E-04 0.47740E-04 0.96858E-04
 0.27616E-04 -.40737E-04 0.49967E-04 0.23593E-03 0.29695E-03 0.18200E-03 0.25627E-03 0.43469E-03 0.41569E-03 0.18461E-03
 -.15136E-04 0.64031E-05 0.13920E-03 0.14794E-03 0.71043E-05 -.86329E-04 -.73559E-05 0.14462E-03 0.21885E-03 0.20371E-03
 0.17005E-03 0.12827E-03 0.49886E-04 -.24593E-04 -.14953E-04 0.70525E-04 0.13165E-03 0.11331E-03 0.67439E-04 0.56110E-04
 0.64404E-04 0.48883E-04 0.16832E-04 0.69755E-05 0.25359E-04 0.46987E-04 0.58909E-04 0.60752E-04 0.41704E-04 -.48955E-06
 -.30765E-04 -.10492E-04 0.45970E-04 0.91146E-04 0.12035E-03 0.18253E-03 0.30210E-03 0.42599E-03 0.46877E-03 0.39137E-03
 0.22897E-03 0.65197E-04 -.19106E-04 -.63124E-05 0.37777E-04 0.36621E-04 0.70453E-06 0.57806E-05 0.65042E-04 0.98420E-04
 0.74192E-04 0.97278E-04 0.49724E-03 0.55387E-03 0.35785E-03 0.11572E-03 0.61656E-04 0.19087E-03 0.28388E-03 0.18748E-03
 -.12299E-05 -.69314E-04 0.45890E-04 0.19797E-03 0.22944E-03 0.14648E-03 0.59260E-04 0.17456E-04 -.12077E-04 -.29714E-04
 0.29612E-04 0.17596E-03 0.29094E-03 0.25172E-03 0.94829E-04 -.22921E-04 -.21820E-04 0.20485E-04 0.56873E-05 -.44838E-04
 -.42498E-04 0.25003E-04 0.78176E-04 0.62593E-04 0.12783E-04 -.12981E-04 -.57497E-05 0.12713E-04 0.38437E-04 0.79215E-04
 0.12787E-03 0.17722E-03 0.24072E-03 0.31944E-03 0.36440E-03 0.31954E-03 0.20240E-03 0.95872E-04 0.48558E-04 0.28362E-04
 -.37245E-05 -.23884E-04 0.27365E-05 0.37491E-04 0.11632E-04 -.43168E-04 0.10900E-04 0.23915E-03 0.41334E-03 0.31955E-03
 0.15897E-03 0.14757E-03 0.30359E-03 0.44731E-03 0.41706E-03 0.23144E-03 0.57554E-04 0.54583E-04 0.22921E-03 0.41915E-03
 0.44166E-03 0.27748E-03 0.77996E-04 -.19146E-04 -.17976E-04 0.24876E-04 0.12543E-03 0.30514E-03 0.45339E-03 0.40522E-03
 0.17611E-03 -.10876E-04 0.66795E-05 0.13757E-03 0.19096E-03 0.13199E-03 0.72649E-04 0.68479E-04 0.62420E-04 0.22198E-04
 0.71251E-06 0.26228E-04 0.41492E-04 0.69933E-05 -.22522E-04 0.96532E-05 0.65370E-04 0.82716E-04 0.85306E-04 0.13240E-03
 0.20009E-03 0.20950E-03 0.15530E-03 0.10791E-03 0.89333E-04 0.49563E-04 -.16085E-04 -.34501E-04 0.12842E-04 0.29314E-04
 -.41657E-04 -.84813E-04 0.44673E-04 0.28641E-03 0.84731E-04 0.15139E-05 0.65338E-04 0.30890E-03 0.54614E-03 0.58744E-03
 0.43096E-03 0.22518E-03 0.13288E-03 0.24938E-03 0.54320E-03 0.81928E-03 0.83655E-03 0.54970E-03 0.18049E-03 -.16427E-04
 0.55017E-05 0.14403E-03 0.34578E-03 0.59838E-03 0.78069E-03 0.72049E-03 0.45119E-03 0.25473E-03 0.34988E-03 0.63444E-03
 0.82840E-03 0.78980E-03 0.58843E-03 0.34532E-03 0.13727E-03 0.27976E-04 0.47229E-04 0.11756E-03 0.11363E-03 0.24902E-04
 -.35818E-04 -.10499E-04 0.27206E-04 0.20443E-04 0.37139E-04 0.13918E-03 0.23864E-03 0.20751E-03 0.76307E-04 -.61845E-05
 0.12162E-04 0.42082E-04 0.22943E-04 0.32040E-05 0.18479E-04 0.17825E-04 -.22804E-04 -.25765E-04 0.57070E-04 0.12924E-03
 -.72713E-04 -.31824E-04 0.19168E-03 0.48076E-03 0.61920E-03 0.52576E-03 0.31662E-03 0.16019E-03 0.16440E-03 0.37940E-03
 0.76645E-03 0.11253E-02 0.11868E-02 0.87856E-03 0.43556E-03 0.17754E-03 0.23251E-03 0.52981E-03 0.95297E-03 0.13660E-02
 0.15649E-02 0.14084E-02 0.10432E-02 0.85064E-03 0.10699E-02 0.15403E-02 0.18761E-02 0.18295E-02 0.14361E-02 0.90309E-03
 0.46051E-03 0.26033E-03 0.28959E-03 0.37318E-03 0.34456E-03 0.21415E-03 0.10700E-03 0.70759E-04 0.56354E-04 0.71524E-04
 0.19793E-03 0.40338E-03 0.48321E-03 0.30432E-03 0.14903E-04 -.12115E-03 -.47345E-04 0.60919E-04 0.66672E-04 0.18604E-04
 0.11752E-04 0.41693E-04 0.58260E-04 0.57180E-04 0.43826E-04 -.74036E-05 0.62839E-04 0.16450E-03 0.34725E-03 0.50398E-03
 0.50553E-03 0.35536E-03 0.18386E-03 0.10458E-03 0.15451E-03 0.35329E-03 0.69875E-03 0.10685E-02 0.12390E-02 0.10958E-02
 0.78940E-03 0.62355E-03 0.81119E-03 0.13532E-02 0.20648E-02 0.26426E-02 0.27918E-02 0.24546E-02 0.19432E-02 0.17276E-02
 0.20105E-02 0.25411E-02 0.28653E-02 0.27143E-02 0.21521E-02 0.14556E-02 0.92344E-03 0.72116E-03 0.78891E-03 0.89290E-03
 0.83216E-03 0.60430E-03 0.34663E-03 0.16681E-03 0.10080E-03 0.17881E-03 0.39512E-03 0.60533E-03 0.59886E-03 0.34810E-03
 0.82795E-04 0.23473E-04 0.11864E-03 0.15434E-03 0.62687E-04 -.19028E-04 0.17670E-04 0.10631E-03 0.13349E-03 0.94298E-04
 0.52914E-04 0.38871E-04 0.18759E-03 0.22686E-03 0.28319E-03 0.33768E-03 0.32545E-03 0.24061E-03 0.15446E-03 0.12172E-03
 0.14101E-03 0.22197E-03 0.40858E-03 0.68685E-03 0.93275E-03 0.10313E-02 0.10396E-02 0.11794E-02 0.16515E-02 0.24521E-02
 0.33319E-02 0.39145E-02 0.39299E-02 0.34402E-02 0.28477E-02 0.25967E-02 0.28002E-02 0.31623E-02 0.32674E-02 0.29268E-02
 0.22715E-02 0.16021E-02 0.11916E-02 0.11464E-02 0.13455E-02 0.15064E-02 0.13888E-02 0.98412E-03 0.50253E-03 0.17988E-03
 0.11007E-03 0.22549E-03 0.37474E-03 0.42260E-03 0.34597E-03 0.25782E-03 0.28327E-03 0.38945E-03 0.40248E-03 0.23457E-03
 0.23831E-04 -.29687E-04 0.81029E-04 0.17927E-03 0.15214E-03 0.75788E-04 0.69099E-04 0.13061E-03 0.77039E-04 0.37075E-04
 0.40184E-04 0.12235E-03 0.23360E-03 0.29763E-03 0.28538E-03 0.22101E-03 0.14593E-03 0.10289E-03 0.13911E-03 0.28922E-03
 0.54706E-03 0.87879E-03 0.12822E-02 0.18175E-02 0.25432E-02 0.33967E-02 0.41460E-02 0.45005E-02 0.43244E-02 0.37751E-02
 0.32187E-02 0.29619E-02 0.30196E-02 0.31264E-02 0.29783E-02 0.24841E-02 0.18209E-02 0.12873E-02 0.11029E-02 0.12832E-02
 0.16266E-02 0.18178E-02 0.16235E-02 0.10756E-02 0.46838E-03 0.11905E-03 0.93729E-04 0.17953E-03 0.14321E-03 -.79664E-05
 -.58560E-04 0.13272E-03 0.43773E-03 0.58275E-03 0.44507E-03 0.17747E-03 0.27519E-04 0.74933E-04 0.18489E-03 0.19907E-03
 0.11273E-03 0.39527E-04 0.46603E-04 0.83839E-04 -.97052E-04 -.12709E-03 -.94752E-04 0.61417E-04 0.32561E-03 0.54730E-03
 0.56888E-03 0.40022E-03 0.19650E-03 0.83504E-04 0.93868E-04 0.26501E-03 0.67485E-03 0.13237E-02 0.20692E-02 0.27549E-02
 0.33452E-02 0.38534E-02 0.41870E-02 0.41792E-02 0.37929E-02 0.32206E-02 0.27483E-02 0.25433E-02 0.25581E-02 0.25829E-02
 0.23877E-02 0.18984E-02 0.12910E-02 0.88065E-03 0.86652E-03 0.11704E-02 0.15126E-02 0.16135E-02 0.13499E-02 0.81795E-03
 0.29299E-03 0.40038E-04 0.69843E-04 0.12451E-03 -.77862E-05 -.20946E-03 -.18671E-03 0.11220E-03 0.39294E-03 0.38664E-03
 0.18171E-03 0.67154E-04 0.14382E-03 0.24809E-03 0.22649E-03 0.12069E-03 0.46851E-04 0.24836E-04 0.66908E-06 -.46828E-04
 -.58335E-04 -.18454E-04 0.34685E-04 0.20961E-03 0.55839E-03 0.88430E-03 0.92015E-03 0.65798E-03 0.35269E-03 0.24143E-03
 0.42022E-03 0.95124E-03 0.18516E-02 0.29072E-02 0.37047E-02 0.39977E-02 0.39358E-02 0.38077E-02 0.36637E-02 0.33407E-02
 0.27896E-02 0.22029E-02 0.18199E-02 0.17325E-02 0.18767E-02 0.20731E-02 0.20709E-02 0.17180E-02 0.11661E-02 0.78945E-03
 0.80930E-03 0.10675E-02 0.12314E-02 0.11286E-02 0.81290E-03 0.41901E-03 0.88436E-04 -.44951E-04 0.37119E-04 0.16391E-03
 0.15441E-03 0.56817E-04 0.60915E-04 0.18103E-03 0.22021E-03 0.10024E-03 0.20010E-04 0.15182E-03 0.34828E-03 0.34329E-03
 0.14081E-03 -.12836E-04 -.96150E-06 0.42530E-04 -.10353E-05 -.64104E-04 0.20993E-03 0.26052E-03 0.26842E-03 0.39989E-03
 0.73987E-03 0.10889E-02 0.11608E-02 0.92253E-03 0.63890E-03 0.65548E-03 0.12273E-02 0.24176E-02 0.39439E-02 0.51687E-02
 0.55102E-02 0.49696E-02 0.41148E-02 0.34728E-02 0.30731E-02 0.26507E-02 0.21093E-02 0.16192E-02 0.13771E-02 0.14560E-02
 0.18198E-02 0.22875E-02 0.25152E-02 0.22458E-02 0.16362E-02 0.11557E-02 0.10726E-02 0.11812E-02 0.11222E-02 0.81509E-03
 0.44159E-03 0.14434E-03 -.56287E-04 -.11583E-03 0.36490E-04 0.32558E-03 0.52858E-03 0.50950E-03 0.34475E-03 0.18128E-03
 0.92162E-04 0.11212E-03 0.26534E-03 0.46326E-03 0.50232E-03 0.29572E-03 0.24606E-04 -.72802E-04 0.51283E-05 0.81421E-04
 0.89342E-04 0.12177E-03 0.53114E-03 0.46264E-03 0.36309E-03 0.42157E-03 0.67922E-03 0.97767E-03 0.11152E-02 0.10422E-02
 0.96275E-03 0.12911E-02 0.23932E-02 0.41804E-02 0.59366E-02 0.67446E-02 0.62480E-02 0.49623E-02 0.37628E-02 0.31203E-02
 0.28971E-02 0.27532E-02 0.25428E-02 0.23332E-02 0.22642E-02 0.24822E-02 0.30376E-02 0.36958E-02 0.39715E-02 0.35536E-02
 0.26804E-02 0.19295E-02 0.16172E-02 0.15415E-02 0.13382E-02 0.92001E-03 0.46639E-03 0.13190E-03 -.55132E-04 -.63382E-04
 0.16421E-03 0.54349E-03 0.79900E-03 0.70301E-03 0.33613E-03 0.30918E-04 0.48177E-04 0.33977E-03 0.62442E-03 0.66419E-03
 0.45999E-03 0.20052E-03 0.52411E-04 0.28691E-04 0.59271E-04 0.12819E-03 0.26985E-03 0.44671E-03 0.77494E-03 0.51127E-03
 0.27882E-03 0.25118E-03 0.39078E-03 0.59526E-03 0.78710E-03 0.93673E-03 0.11932E-02 0.19418E-02 0.34477E-02 0.53319E-02
 0.66265E-02 0.65810E-02 0.53784E-02 0.39381E-02 0.30865E-02 0.30318E-02 0.35070E-02 0.41272E-02 0.45699E-02 0.46877E-02
 0.46506E-02 0.48552E-02 0.54810E-02 0.61553E-02 0.62274E-02 0.54209E-02 0.41198E-02 0.29798E-02 0.23425E-02 0.20612E-02
 0.17944E-02 0.13608E-02 0.83231E-03 0.39515E-03 0.18482E-03 0.22599E-03 0.44747E-03 0.69534E-03 0.76423E-03 0.53032E-03
 0.12177E-03 -.11978E-03 0.30059E-04 0.39919E-03 0.59214E-03 0.45568E-03 0.23091E-03 0.18448E-03 0.25498E-03 0.22225E-03
 0.10876E-03 0.17111E-03 0.48771E-03 0.78476E-03 0.87348E-03 0.46809E-03 0.14532E-03 0.51013E-04 0.90776E-04 0.19899E-03
 0.40459E-03 0.75077E-03 0.13535E-02 0.24191E-02 0.39202E-02 0.52816E-02 0.57053E-02 0.49464E-02 0.36148E-02 0.26381E-02
 0.25781E-02 0.34810E-02 0.50584E-02 0.67616E-02 0.79093E-02 0.81570E-02 0.78879E-02 0.78566E-02 0.83349E-02 0.87833E-02
 0.84598E-02 0.71994E-02 0.55015E-02 0.40111E-02 0.30585E-02 0.25804E-02 0.22827E-02 0.18832E-02 0.13368E-02 0.85621E-03
 0.65329E-03 0.68830E-03 0.74133E-03 0.67041E-03 0.49228E-03 0.26756E-03 0.58088E-04 -.28869E-04 0.67353E-04 0.20794E-03
 0.17861E-03 0.15925E-04 0.60237E-05 0.25184E-03 0.45704E-03 0.34234E-03 0.10778E-03 0.19244E-03 0.63498E-03 0.98080E-03
 0.75406E-03 0.34851E-03 0.46916E-04 -.42077E-04 -.36627E-04 0.21831E-04 0.25406E-03 0.79037E-03 0.16648E-02 0.27817E-02
 0.38388E-02 0.43633E-02 0.40477E-02 0.31026E-02 0.21770E-02 0.19276E-02 0.27250E-02 0.46177E-02 0.72520E-02 0.97851E-02
 0.11253E-01 0.11350E-01 0.10740E-01 0.10361E-01 0.10450E-01 0.10421E-01 0.96418E-02 0.80863E-02 0.62342E-02 0.46045E-02
 0.34830E-02 0.28794E-02 0.25536E-02 0.21907E-02 0.17019E-02 0.12908E-02 0.11254E-02 0.10587E-02 0.83128E-03 0.45654E-03
 0.19879E-03 0.19441E-03 0.29710E-03 0.31662E-03 0.22156E-03 0.61845E-04 -.11648E-03 -.19829E-03 -.36797E-04 0.29735E-03
 0.47506E-03 0.30893E-03 0.70699E-04 0.17481E-03 0.60334E-03 0.89997E-03 0.44538E-03 0.15492E-03 -.23429E-04 -.35256E-04
 0.51681E-05 0.11006E-03 0.48537E-03 0.12728E-02 0.23196E-02 0.32413E-02 0.36730E-02 0.34830E-02 0.28376E-02 0.21240E-02
 0.17999E-02 0.22703E-02 0.37969E-02 0.63321E-02 0.93176E-02 0.11783E-01 0.12936E-01 0.12783E-01 0.12068E-01 0.11506E-01
 0.11152E-01 0.10566E-01 0.94213E-02 0.78206E-02 0.61045E-02 0.45902E-02 0.34799E-02 0.28098E-02 0.24066E-02 0.20311E-02
 0.16378E-02 0.13741E-02 0.12666E-02 0.10823E-02 0.64936E-03 0.17765E-03 0.43923E-04 0.29828E-03 0.59117E-03 0.60621E-03
 0.37656E-03 0.12413E-03 -.23025E-04 -.46420E-04 0.60924E-04 0.24057E-03 0.31929E-03 0.19820E-03 0.45924E-04 0.12072E-03
 0.40198E-03 0.57809E-03 0.15795E-03 0.23096E-05 -.42956E-04 0.24987E-04 0.13546E-03 0.39841E-03 0.10569E-02 0.21262E-02
 0.32156E-02 0.38163E-02 0.37272E-02 0.31617E-02 0.25277E-02 0.22141E-02 0.25410E-02 0.37309E-02 0.57658E-02 0.82499E-02
 0.10507E-01 0.11942E-01 0.12416E-01 0.12268E-01 0.11948E-01 0.11600E-01 0.11019E-01 0.99884E-02 0.85617E-02 0.70050E-02
 0.55498E-02 0.42933E-02 0.32681E-02 0.24792E-02 0.18766E-02 0.14039E-02 0.10884E-02 0.97313E-03 0.93956E-03 0.74652E-03
 0.34077E-03 0.45924E-05 0.39472E-04 0.36485E-03 0.60055E-03 0.53269E-03 0.31879E-03 0.19696E-03 0.18028E-03 0.15020E-03
 0.99431E-04 0.10692E-03 0.14867E-03 0.12180E-03 0.44702E-04 0.56385E-04 0.18116E-03 0.25400E-03 0.77553E-04 0.19014E-04
 0.52630E-04 0.15702E-03 0.34235E-03 0.81541E-03 0.17673E-02 0.30000E-02 0.39564E-02 0.42019E-02 0.37870E-02 0.31332E-02
 0.27227E-02 0.29553E-02 0.40828E-02 0.60158E-02 0.81970E-02 0.98842E-02 0.10706E-01 0.10926E-01 0.11124E-01 0.11639E-01
 0.12273E-01 0.12477E-01 0.11794E-01 0.10230E-01 0.82664E-02 0.64944E-02 0.51818E-02 0.41797E-02 0.32150E-02 0.22098E-02
 0.13108E-02 0.69563E-03 0.41701E-03 0.37816E-03 0.39044E-03 0.29547E-03 0.10667E-03 0.14312E-05 0.97669E-04 0.27320E-03
 0.30684E-03 0.17404E-03 0.66517E-04 0.10064E-03 0.15986E-03 0.10461E-03 -.68973E-06 -.58828E-05 0.74339E-04 0.96135E-04
 0.33221E-04 0.10488E-04 0.78699E-04 0.12679E-03 0.13224E-03 0.14768E-03 0.23126E-03 0.35678E-03 0.60809E-03 0.12277E-02
 0.22988E-02 0.34613E-02 0.41378E-02 0.40563E-02 0.34597E-02 0.28741E-02 0.28430E-02 0.37981E-02 0.58213E-02 0.83331E-02
 0.10257E-01 0.10859E-01 0.10496E-01 0.10366E-01 0.11423E-01 0.13519E-01 0.15536E-01 0.16211E-01 0.14949E-01 0.12151E-01
 0.89464E-02 0.64563E-02 0.50579E-02 0.42713E-02 0.33955E-02 0.22194E-02 0.10837E-02 0.37111E-03 0.10925E-03 0.63162E-04
 0.40112E-04 0.11065E-04 0.21647E-04 0.84552E-04 0.14888E-03 0.13768E-03 0.31361E-04 -.83420E-04 -.98284E-04 -.25795E-04
 0.12882E-04 -.32994E-04 -.66934E-04 -.51386E-05 0.78891E-04 0.69179E-04 -.19784E-05 -.58254E-05 0.75594E-04 0.13540E-03
 0.12338E-03 0.20499E-03 0.33587E-03 0.49041E-03 0.77816E-03 0.14012E-02 0.23565E-02 0.32691E-02 0.36554E-02 0.33573E-02
 0.26884E-02 0.22425E-02 0.26391E-02 0.42690E-02 0.69315E-02 0.96423E-02 0.11158E-01 0.11094E-01 0.10555E-01 0.11362E-01
 0.14426E-01 0.18791E-01 0.22221E-01 0.22737E-01 0.19866E-01 0.14823E-01 0.96962E-02 0.61752E-02 0.46140E-02 0.41048E-02
 0.34898E-02 0.23681E-02 0.11746E-02 0.44530E-03 0.21788E-03 0.16072E-03 0.56744E-04 -.28113E-04 0.19825E-04 0.15030E-03
 0.21919E-03 0.16753E-03 0.62174E-04 -.45365E-05 -.47497E-05 0.27788E-04 0.57190E-04 0.83342E-04 0.11777E-03 0.13854E-03
 0.10467E-03 0.25848E-04 -.24204E-04 0.25455E-05 0.63208E-04 0.96529E-04 0.30357E-04 0.13605E-03 0.26341E-03 0.41164E-03
 0.68274E-03 0.11988E-02 0.19235E-02 0.25763E-02 0.27919E-02 0.24340E-02 0.17935E-02 0.14959E-02 0.21840E-02 0.41294E-02
 0.69206E-02 0.94948E-02 0.10794E-01 0.10810E-01 0.11035E-01 0.13490E-01 0.18823E-01 0.25231E-01 0.29411E-01 0.28857E-01
 0.23581E-01 0.15951E-01 0.90370E-02 0.48193E-02 0.33740E-02 0.33400E-02 0.31869E-02 0.23165E-02 0.11782E-02 0.46284E-03
 0.31169E-03 0.33527E-03 0.21267E-03 0.29273E-04 0.20495E-04 0.20258E-03 0.38461E-03 0.43019E-03 0.36463E-03 0.27044E-03
 0.20736E-03 0.22870E-03 0.35697E-03 0.50838E-03 0.52967E-03 0.36486E-03 0.13443E-03 0.13271E-05 -.36624E-05 0.24117E-04
 0.12014E-04 -.84804E-05 0.13412E-05 0.63438E-04 0.10047E-03 0.17625E-03 0.39577E-03 0.81104E-03 0.13687E-02 0.18731E-02
 0.20358E-02 0.17082E-02 0.11402E-02 0.94553E-03 0.17231E-02 0.36325E-02 0.62109E-02 0.85418E-02 0.98413E-02 0.10306E-01
 0.11473E-01 0.15235E-01 0.21871E-01 0.28948E-01 0.32593E-01 0.30322E-01 0.22908E-01 0.13701E-01 0.62625E-02 0.23894E-02
 0.16655E-02 0.23333E-02 0.26596E-02 0.19896E-02 0.85857E-03 0.14213E-03 0.98883E-04 0.27868E-03 0.23269E-03 0.35325E-04
 0.32509E-04 0.31593E-03 0.64590E-03 0.78163E-03 0.69439E-03 0.50128E-03 0.36108E-03 0.41979E-03 0.68799E-03 0.94355E-03
 0.90346E-03 0.54905E-03 0.16620E-03 0.78212E-05 0.31086E-04 0.42838E-04 -.14020E-04 -.44529E-04 0.72618E-04 0.72208E-04
 0.95899E-05 0.14065E-04 0.21557E-03 0.63185E-03 0.11678E-02 0.16267E-02 0.17531E-02 0.14293E-02 0.91162E-03 0.78712E-03
 0.15949E-02 0.34246E-02 0.57933E-02 0.78725E-02 0.90564E-02 0.96835E-02 0.11224E-01 0.15225E-01 0.21506E-01 0.27392E-01
 0.29269E-01 0.25356E-01 0.17166E-01 0.83676E-02 0.22669E-02 0.43124E-04 0.68389E-03 0.21227E-02 0.26562E-02 0.18781E-02
 0.60273E-03 -.14172E-03 -.10656E-03 0.17344E-03 0.20171E-03 0.68696E-04 0.14509E-03 0.50965E-03 0.88674E-03 0.10169E-02
 0.88538E-03 0.64300E-03 0.48082E-03 0.55303E-03 0.84315E-03 0.10892E-02 0.99927E-03 0.58872E-03 0.17777E-03 0.14673E-04
 0.33151E-04 0.42879E-04 0.97354E-05 0.20127E-04 0.10797E-03 0.95612E-04 0.29116E-04 0.53488E-04 0.32253E-03 0.84521E-03
 0.14555E-02 0.18913E-02 0.19290E-02 0.15540E-02 0.10814E-02 0.10699E-02 0.19951E-02 0.38718E-02 0.61141E-02 0.78384E-02
 0.85567E-02 0.88012E-02 0.99710E-02 0.13141E-01 0.17685E-01 0.21147E-01 0.20876E-01 0.16150E-01 0.89070E-02 0.24354E-02
 -.78069E-03 -.41599E-03 0.18928E-02 0.38767E-02 0.41256E-02 0.28025E-02 0.11487E-02 0.25558E-03 0.23015E-03 0.45742E-03
 0.46876E-03 0.36078E-03 0.43818E-03 0.73092E-03 0.99907E-03 0.10578E-02 0.92826E-03 0.73338E-03 0.59550E-03 0.60844E-03
 0.76581E-03 0.89943E-03 0.80840E-03 0.49167E-03 0.16541E-03 0.13692E-04 0.87896E-05 0.24135E-04 0.25946E-04 0.59161E-04
 0.43787E-04 0.60407E-04 0.62052E-04 0.17621E-03 0.56604E-03 0.12245E-02 0.19021E-02 0.22753E-02 0.21906E-02 0.17772E-02
 0.14080E-02 0.15729E-02 0.26407E-02 0.45269E-02 0.65436E-02 0.77772E-02 0.78756E-02 0.75211E-02 0.79497E-02 0.97670E-02
 0.12131E-01 0.13168E-01 0.11395E-01 0.70126E-02 0.19988E-02 -.10882E-02 -.77803E-03 0.23489E-02 0.60856E-02 0.81213E-02
 0.75471E-02 0.52213E-02 0.28122E-02 0.14468E-02 0.11236E-02 0.11857E-02 0.11394E-02 0.97833E-03 0.90486E-03 0.97064E-03
 0.10465E-02 0.10160E-02 0.88194E-03 0.71084E-03 0.56268E-03 0.48300E-03 0.49075E-03 0.53636E-03 0.51720E-03 0.38046E-03
 0.19048E-03 0.56883E-04 0.13046E-04 0.75600E-05 0.13228E-05 0.10969E-04 -.63995E-05 0.11150E-04 0.35945E-04 0.20000E-03
 0.66640E-03 0.13900E-02 0.20521E-02 0.23166E-02 0.21275E-02 0.17341E-02 0.15120E-02 0.18192E-02 0.28731E-02 0.45230E-02
 0.61257E-02 0.68988E-02 0.66202E-02 0.59306E-02 0.57629E-02 0.63886E-02 0.70497E-02 0.65639E-02 0.43797E-02 0.12342E-02
 -.10748E-02 -.74032E-03 0.27624E-02 0.80557E-02 0.12547E-01 0.14082E-01 0.12299E-01 0.86252E-02 0.50525E-02 0.28219E-02
 0.19857E-02 0.18787E-02 0.18538E-02 0.16798E-02 0.14620E-02 0.13361E-02 0.12768E-02 0.11589E-02 0.92435E-03 0.63535E-03
 0.38652E-03 0.22893E-03 0.18136E-03 0.24289E-03 0.35635E-03 0.41248E-03 0.34600E-03 0.20427E-03 0.81421E-04 0.13620E-04
 -.18805E-04 -.25236E-04 0.36805E-04 0.14033E-04 -.10235E-04 0.11400E-03 0.53655E-03 0.11848E-02 0.17318E-02 0.18779E-02
 0.16360E-02 0.12958E-02 0.11763E-02 0.14882E-02 0.23173E-02 0.35272E-02 0.46614E-02 0.51687E-02 0.48968E-02 0.42919E-02
 0.39558E-02 0.39865E-02 0.38360E-02 0.28634E-02 0.10761E-02 -.55604E-03 -.48289E-03 0.24723E-02 0.80967E-02 0.14490E-01
 0.18965E-01 0.19654E-01 0.16625E-01 0.11629E-01 0.68494E-02 0.36843E-02 0.23264E-02 0.21149E-02 0.22217E-02 0.21924E-02
 0.20470E-02 0.19682E-02 0.19563E-02 0.18228E-02 0.14530E-02 0.95225E-03 0.51271E-03 0.23944E-03 0.15333E-03 0.25657E-03
 0.49070E-03 0.68606E-03 0.67341E-03 0.45504E-03 0.19478E-03 0.37907E-04 0.45101E-06 0.20668E-04 0.81978E-04 0.42636E-04
 -.65578E-05 0.45907E-04 0.31183E-03 0.75083E-03 0.11231E-02 0.11916E-02 0.96710E-03 0.69021E-03 0.60153E-03 0.81019E-03
 0.13337E-02 0.20963E-02 0.28455E-02 0.32360E-02 0.31451E-02 0.28396E-02 0.26880E-02 0.27021E-02 0.24777E-02 0.16680E-02
 0.54104E-03 0.10697E-03 0.16566E-02 0.59103E-02 0.12247E-01 0.18627E-01 0.22528E-01 0.22397E-01 0.18558E-01 0.12871E-01
 0.75320E-02 0.39565E-02 0.23781E-02 0.21525E-02 0.24019E-02 0.25924E-02 0.26996E-02 0.28978E-02 0.31532E-02 0.31854E-02
 0.27944E-02 0.20909E-02 0.13648E-02 0.83674E-03 0.59724E-03 0.66334E-03 0.94094E-03 0.11767E-02 0.11130E-02 0.73905E-03
 0.30529E-03 0.56518E-04 0.19719E-04 0.65511E-04 0.44504E-04 0.45523E-04 0.48195E-04 0.58638E-04 0.13645E-03 0.32810E-03
 0.54092E-03 0.60155E-03 0.46604E-03 0.28162E-03 0.21937E-03 0.33619E-03 0.61883E-03 0.10367E-02 0.14777E-02 0.17469E-02
 0.17612E-02 0.16933E-02 0.17794E-02 0.19812E-02 0.19654E-02 0.15074E-02 0.91882E-03 0.10825E-02 0.30257E-02 0.72299E-02
 0.13028E-01 0.18573E-01 0.21673E-01 0.21083E-01 0.17277E-01 0.12045E-01 0.73385E-02 0.42945E-02 0.29999E-02 0.28425E-02
 0.30734E-02 0.32807E-02 0.35182E-02 0.39902E-02 0.46081E-02 0.49387E-02 0.46132E-02 0.36944E-02 0.25903E-02 0.17069E-02
 0.12547E-02 0.12525E-02 0.15240E-02 0.17158E-02 0.15183E-02 0.95620E-03 0.36868E-03 0.51740E-04 0.20040E-06 0.32619E-04
 0.33831E-05 0.43061E-04 0.97664E-04 0.90570E-04 0.42658E-04 0.71034E-04 0.20190E-03 0.31172E-03 0.30291E-03 0.23544E-03
 0.22631E-03 0.30623E-03 0.44159E-03 0.61523E-03 0.79874E-03 0.91026E-03 0.90941E-03 0.90296E-03 0.10388E-02 0.12794E-02
 0.13815E-02 0.11731E-02 0.86358E-03 0.10959E-02 0.26621E-02 0.59678E-02 0.10503E-01 0.14784E-01 0.17080E-01 0.16531E-01
 0.13716E-01 0.10162E-01 0.72779E-02 0.56495E-02 0.50594E-02 0.49279E-02 0.47781E-02 0.45371E-02 0.45171E-02 0.50075E-02
 0.58122E-02 0.62792E-02 0.58719E-02 0.46602E-02 0.32116E-02 0.21008E-02 0.15901E-02 0.16266E-02 0.19221E-02 0.20561E-02
 0.17289E-02 0.10303E-02 0.36153E-03 0.25615E-04 -.25621E-04 -.53167E-05 0.48618E-04 0.66041E-04 0.99913E-04 0.81317E-04
 0.10674E-04 0.47578E-05 0.13546E-03 0.31668E-03 0.41901E-03 0.42907E-03 0.42570E-03 0.45163E-03 0.48754E-03 0.52069E-03
 0.55574E-03 0.56718E-03 0.52178E-03 0.46096E-03 0.48541E-03 0.61343E-03 0.70311E-03 0.59102E-03 0.35022E-03 0.41493E-03
 0.13930E-02 0.36086E-02 0.66773E-02 0.95378E-02 0.11085E-01 0.10968E-01 0.98309E-02 0.87470E-02 0.83779E-02 0.85960E-02
 0.87742E-02 0.83672E-02 0.73312E-02 0.61626E-02 0.55371E-02 0.57411E-02 0.63510E-02 0.65362E-02 0.57729E-02 0.42689E-02
 0.27098E-02 0.16809E-02 0.13547E-02 0.15562E-02 0.19236E-02 0.20472E-02 0.16854E-02 0.96958E-03 0.30790E-03 -.19809E-05
 -.14890E-04 0.37125E-04 0.10451E-03 0.70384E-04 0.59876E-04 0.51802E-04 0.23471E-04 0.49536E-04 0.21397E-03 0.46113E-03
 0.62914E-03 0.63083E-03 0.53091E-03 0.43991E-03 0.40272E-03 0.40785E-03 0.43248E-03 0.43622E-03 0.37256E-03 0.26767E-03
 0.24119E-03 0.36552E-03 0.52185E-03 0.50102E-03 0.30062E-03 0.26415E-03 0.83778E-03 0.21502E-02 0.38331E-02 0.52758E-02
 0.61129E-02 0.65490E-02 0.72280E-02 0.86887E-02 0.10803E-01 0.12692E-01 0.13287E-01 0.12145E-01 0.98403E-02 0.75797E-02
 0.63291E-02 0.61587E-02 0.63197E-02 0.59403E-02 0.47201E-02 0.30622E-02 0.16423E-02 0.89381E-03 0.83304E-03 0.11988E-02
 0.16333E-02 0.17968E-02 0.15087E-02 0.88773E-03 0.28954E-03 0.39878E-05 0.14783E-04 0.97273E-04 0.63434E-04 0.14850E-04
 0.13096E-04 0.39314E-04 0.44200E-04 0.84853E-04 0.26562E-03 0.54661E-03 0.72936E-03 0.67574E-03 0.46237E-03 0.27354E-03
 0.20788E-03 0.23781E-03 0.29056E-03 0.30065E-03 0.24000E-03 0.18197E-03 0.29138E-03 0.64202E-03 0.10599E-02 0.12756E-02
 0.12679E-02 0.13375E-02 0.17593E-02 0.24333E-02 0.29895E-02 0.32336E-02 0.34488E-02 0.42848E-02 0.63446E-02 0.96907E-02
 0.13519E-01 0.16334E-01 0.16786E-01 0.14677E-01 0.11234E-01 0.82441E-02 0.67498E-02 0.64722E-02 0.63474E-02 0.55363E-02
 0.39884E-02 0.22612E-02 0.97475E-03 0.41749E-03 0.50403E-03 0.94461E-03 0.14090E-02 0.16169E-02 0.14241E-02 0.91619E-03
 0.37887E-03 0.78072E-04 0.39030E-04 0.81352E-04 -.71325E-05 -.33394E-04 -.73844E-06 0.36075E-04 0.30457E-04 0.55265E-04
 0.21366E-03 0.45671E-03 0.59450E-03 0.51406E-03 0.30743E-03 0.14746E-03 0.10351E-03 0.12418E-03 0.13871E-03 0.11600E-03
 0.78585E-04 0.13252E-03 0.43524E-03 0.10295E-02 0.17240E-02 0.22533E-02 0.25759E-02 0.28986E-02 0.33417E-02 0.36891E-02
 0.36147E-02 0.31703E-02 0.29850E-02 0.39451E-02 0.66017E-02 0.10674E-01 0.14924E-01 0.17612E-01 0.17487E-01 0.14719E-01
 0.10916E-01 0.80124E-02 0.68995E-02 0.69933E-02 0.70060E-02 0.60856E-02 0.43252E-02 0.24294E-02 0.10723E-02 0.51690E-03
 0.63271E-03 0.10963E-02 0.15597E-02 0.17481E-02 0.15453E-02 0.10551E-02 0.53792E-03 0.21135E-03 0.90415E-04 0.45303E-04
 0.28356E-04 0.15787E-04 0.35227E-04 0.29309E-04 -.17598E-05 0.13237E-04 0.11325E-03 0.23430E-03 0.27890E-03 0.23095E-03
 0.16083E-03 0.12688E-03 0.11550E-03 0.85335E-04 0.30728E-04 -.16649E-04 -.10267E-04 0.12050E-03 0.46495E-03 0.10507E-02
 0.17690E-02 0.24472E-02 0.30235E-02 0.35849E-02 0.41660E-02 0.45618E-02 0.44829E-02 0.39882E-02 0.37220E-02 0.45925E-02
 0.70728E-02 0.10685E-01 0.14097E-01 0.15811E-01 0.15060E-01 0.12352E-01 0.92296E-02 0.72834E-02 0.70698E-02 0.78041E-02
 0.81084E-02 0.71477E-02 0.51595E-02 0.30475E-02 0.15988E-02 0.10578E-02 0.12185E-02 0.16943E-02 0.20921E-02 0.21254E-02
 0.17404E-02 0.11429E-02 0.62430E-03 0.32535E-03 0.18499E-03 0.93752E-04 0.12915E-03 0.12168E-03 0.96379E-04 0.39589E-04
 0.38493E-05 0.19313E-04 0.41774E-04 0.27327E-04 0.55895E-05 0.31343E-04 0.96658E-04 0.13841E-03 0.11805E-03 0.56462E-04
 -.19466E-05 -.25365E-04 0.75483E-05 0.12306E-03 0.35384E-03 0.72058E-03 0.12045E-02 0.17516E-02 0.23360E-02 0.30012E-02
 0.37624E-02 0.44460E-02 0.47537E-02 0.46322E-02 0.45595E-02 0.52842E-02 0.71399E-02 0.96108E-02 0.11606E-01 0.12188E-01
 0.11163E-01 0.91921E-02 0.74268E-02 0.68320E-02 0.75059E-02 0.85439E-02 0.87213E-02 0.74882E-02 0.53514E-02 0.33282E-02
 0.21241E-02 0.18179E-02 0.20914E-02 0.25223E-02 0.27159E-02 0.24342E-02 0.17543E-02 0.10201E-02 0.53492E-03 0.32544E-03
 0.23636E-03 0.16776E-03 0.14169E-03 0.16670E-03 0.13787E-03 0.76109E-04 0.46237E-04 0.40647E-04 0.18574E-05 -.53422E-04
 -.37713E-04 0.64871E-04 0.15326E-03 0.14361E-03 0.74040E-04 0.28594E-04 0.20751E-04 0.15127E-04 0.22388E-04 0.10135E-03
 0.27770E-03 0.51580E-03 0.77673E-03 0.10770E-02 0.14941E-02 0.21188E-02 0.29530E-02 0.38192E-02 0.44420E-02 0.47319E-02
 0.49791E-02 0.56404E-02 0.68576E-02 0.82249E-02 0.90820E-02 0.90374E-02 0.82497E-02 0.73141E-02 0.68951E-02 0.72884E-02
 0.81396E-02 0.86102E-02 0.80075E-02 0.63735E-02 0.44413E-02 0.30149E-02 0.24280E-02 0.25208E-02 0.29153E-02 0.32053E-02
 0.30585E-02 0.23886E-02 0.14638E-02 0.70480E-03 0.32017E-03 0.19929E-03 0.15186E-03 0.12458E-03 0.83122E-04 0.15212E-03
 0.14863E-03 0.10208E-03 0.61639E-04 0.21353E-04 -.23447E-04 -.14191E-04 0.91544E-04 0.21721E-03 0.23773E-03 0.14570E-03
 0.58460E-04 0.46513E-04 0.47059E-04 -.25604E-05 -.22655E-04 0.12923E-03 0.46184E-03 0.81935E-03 0.10656E-02 0.12455E-02
 0.15334E-02 0.20490E-02 0.27460E-02 0.34655E-02 0.40814E-02 0.46096E-02 0.51901E-02 0.59425E-02 0.68092E-02 0.75424E-02
 0.78840E-02 0.78049E-02 0.75823E-02 0.76043E-02 0.80191E-02 0.85254E-02 0.85401E-02 0.76617E-02 0.60301E-02 0.42404E-02
 0.29085E-02 0.23140E-02 0.23810E-02 0.28380E-02 0.33150E-02 0.34143E-02 0.29088E-02 0.19497E-02 0.98196E-03 0.36731E-03
 0.12093E-03 0.39346E-04 -.57972E-05 0.48915E-05 0.15213E-03 0.21397E-03 0.17070E-03 0.90890E-04 0.36540E-04 0.10864E-04
 0.13224E-04 0.66625E-04 0.15802E-03 0.21239E-03 0.17993E-03 0.11213E-03 0.89317E-04 0.95274E-04 0.46496E-04 -.37067E-04
 0.24234E-04 0.38250E-03 0.95491E-03 0.14868E-02 0.18278E-02 0.20727E-02 0.23985E-02 0.28320E-02 0.32560E-02 0.36169E-02
 0.40363E-02 0.46851E-02 0.55916E-02 0.65939E-02 0.74417E-02 0.79383E-02 0.80746E-02 0.81004E-02 0.83900E-02 0.90686E-02
 0.97159E-02 0.95746E-02 0.82043E-02 0.59453E-02 0.36761E-02 0.21286E-02 0.14834E-02 0.15415E-02 0.20516E-02 0.27487E-02
 0.32360E-02 0.31169E-02 0.23431E-02 0.13148E-02 0.52621E-03 0.14872E-03 0.17889E-04 -.50626E-04 -.66756E-04 0.19177E-04
 0.42419E-03 0.42130E-03 0.24881E-03 0.78658E-04 0.40506E-04 0.10313E-03 0.15008E-03 0.12134E-03 0.51490E-04 0.28845E-05
 0.56421E-05 0.50495E-04 0.96561E-04 0.92210E-04 0.44215E-04 0.77399E-04 0.35660E-03 0.89798E-03 0.15066E-02 0.19740E-02
 0.23110E-02 0.26960E-02 0.31920E-02 0.36265E-02 0.38217E-02 0.38774E-02 0.41400E-02 0.48934E-02 0.61102E-02 0.74502E-02
 0.84448E-02 0.87799E-02 0.85807E-02 0.84290E-02 0.88847E-02 0.98156E-02 0.10294E-01 0.93665E-02 0.69904E-02 0.41218E-02
 0.18900E-02 0.79182E-03 0.66361E-03 0.11571E-02 0.19820E-02 0.27730E-02 0.30632E-02 0.26075E-02 0.16568E-02 0.75312E-03
 0.24269E-03 0.64128E-04 -.82805E-05 -.47404E-04 0.30601E-04 0.23947E-03 0.71943E-03 0.66494E-03 0.36878E-03 0.11119E-03
 0.10266E-03 0.24886E-03 0.29002E-03 0.13372E-03 -.53999E-04 -.89215E-04 0.80228E-05 0.82360E-04 0.57781E-04 0.18097E-04
 0.11343E-03 0.43340E-03 0.93015E-03 0.14207E-02 0.17206E-02 0.18485E-02 0.20549E-02 0.25534E-02 0.32321E-02 0.37339E-02
 0.38492E-02 0.37712E-02 0.39542E-02 0.47621E-02 0.61979E-02 0.78180E-02 0.89042E-02 0.89600E-02 0.82375E-02 0.76546E-02
 0.79238E-02 0.87228E-02 0.89152E-02 0.76759E-02 0.52855E-02 0.27913E-02 0.10904E-02 0.47020E-03 0.79584E-03 0.17527E-02
 0.28382E-02 0.34294E-02 0.31527E-02 0.21964E-02 0.11383E-02 0.44343E-03 0.16292E-03 0.75811E-04 0.14588E-04 0.12797E-04
 0.18008E-03 0.48811E-03 0.83337E-03 0.78229E-03 0.45923E-03 0.16709E-03 0.13984E-03 0.26585E-03 0.27903E-03 0.14735E-03
 0.92028E-04 0.22498E-03 0.35872E-03 0.27074E-03 0.38113E-04 -.16252E-04 0.32082E-03 0.92686E-03 0.14524E-02 0.16115E-02
 0.14112E-02 0.11646E-02 0.12535E-02 0.18021E-02 0.25587E-02 0.31191E-02 0.32757E-02 0.31843E-02 0.32766E-02 0.40013E-02
 0.54648E-02 0.71569E-02 0.81497E-02 0.78602E-02 0.66968E-02 0.57514E-02 0.57106E-02 0.61860E-02 0.62202E-02 0.53018E-02
 0.37316E-02 0.21783E-02 0.11947E-02 0.11187E-02 0.20126E-02 0.34350E-02 0.44869E-02 0.44308E-02 0.33205E-02 0.18954E-02
 0.86348E-03 0.39549E-03 0.25134E-03 0.17752E-03 0.10505E-03 0.10708E-03 0.27634E-03 0.58761E-03 0.74057E-03 0.70723E-03
 0.45120E-03 0.18614E-03 0.79575E-04 0.92780E-04 0.13331E-03 0.24238E-03 0.49222E-03 0.75751E-03 0.76694E-03 0.44086E-03
 0.76025E-04 0.96013E-04 0.61782E-03 0.13003E-02 0.16325E-02 0.13836E-02 0.79818E-03 0.37176E-03 0.43753E-03 0.95511E-03
 0.16357E-02 0.21804E-02 0.24108E-02 0.23488E-02 0.23175E-02 0.28343E-02 0.41158E-02 0.56259E-02 0.63653E-02 0.58190E-02