PROCAR lm decomposed + phase
# of k-points:    1         # of bands:   9         # of ions:   4

 k-point    1 :    0.00000000 0.00000000 0.00000000     weight = 1.00000000

band   1 # energy  -16.35493399 # occ.  1.00000000
 
ion      s     py     pz     px    dxy    dyz    dz2    dxz    dx2    tot
  1  0.409  0.004  0.004  0.004  0.000  0.000  0.000  0.000  0.000  0.422
  2  0.087  0.003  0.002  0.002  0.000  0.000  0.000  0.000  0.000  0.094
  3  0.087  0.002  0.002  0.003  0.000  0.000  0.000  0.000  0.000  0.094
  4  0.087  0.002  0.003  0.002  0.000  0.000  0.000  0.000  0.000  0.094
tot  0.668  0.012  0.012  0.012  0.000  0.000  0.000  0.000  0.000  0.704
ion      s     py     pz     px    dxy    dyz    dz2    dxz    dx2
  1 -0.153 -0.020  0.020  0.020  0.000  0.000  0.000  0.000  0.000
  1 -1.016 -0.133  0.133  0.133  0.000  0.000  0.000  0.000  0.000
  2 -0.096 -0.011 -0.009 -0.009  0.000  0.000  0.000  0.000  0.000
  2 -0.640 -0.072 -0.060 -0.060  0.000  0.000  0.000  0.000  0.000
  3 -0.096  0.009 -0.009  0.011  0.000  0.000  0.000  0.000  0.000
  3 -0.640  0.060 -0.060  0.072  0.000  0.000  0.000  0.000  0.000
  4 -0.096  0.009  0.011 -0.009  0.000  0.000  0.000  0.000  0.000
  4 -0.640  0.060  0.072 -0.060  0.000  0.000  0.000  0.000  0.000
 
band   2 # energy   -9.29003498 # occ.  1.00000000
 
ion      s     py     pz     px    dxy    dyz    dz2    dxz    dx2    tot
  1  0.000  0.001  0.168  0.143  0.000  0.000  0.000  0.000  0.000  0.313
  2  0.001  0.000  0.001  0.002  0.000  0.000  0.000  0.000  0.000  0.004
  3  0.160  0.004  0.001  0.001  0.000  0.000  0.000  0.000  0.000  0.166
  4  0.187  0.004  0.001  0.001  0.000  0.000  0.000  0.000  0.000  0.194
tot  0.348  0.010  0.171  0.147  0.000  0.000  0.000  0.000  0.000  0.676
ion      s     py     pz     px    dxy    dyz    dz2    dxz    dx2
  1  0.000 -0.015 -0.195  0.180  0.000  0.000  0.000  0.000  0.000
  1  0.000 -0.057 -0.742  0.685  0.000  0.000  0.000  0.000  0.000
  2  0.016  0.001 -0.010  0.013  0.000  0.000  0.000  0.000  0.000
  2  0.063  0.003 -0.040  0.049  0.000  0.000  0.000  0.000  0.000
  3  0.198 -0.022  0.009 -0.011  0.000  0.000  0.000  0.000  0.000
  3  0.752 -0.083  0.034 -0.040  0.000  0.000  0.000  0.000  0.000
  4 -0.214  0.022  0.011 -0.012  0.000  0.000  0.000  0.000  0.000
  4 -0.815  0.083  0.044 -0.044  0.000  0.000  0.000  0.000  0.000
 
band   3 # energy   -9.29003401 # occ.  1.00000000
 
ion      s     py     pz     px    dxy    dyz    dz2    dxz    dx2    tot
  1  0.000  0.208  0.040  0.065  0.000  0.000  0.000  0.000  0.000  0.313
  2  0.231  0.001  0.003  0.003  0.000  0.000  0.000  0.000  0.000  0.239
  3  0.072  0.000  0.004  0.000  0.000  0.000  0.000  0.000  0.000  0.077
  4  0.045  0.000  0.000  0.003  0.000  0.000  0.000  0.000  0.000  0.048
tot  0.348  0.209  0.048  0.072  0.000  0.000  0.000  0.000  0.000  0.676
ion      s     py     pz     px    dxy    dyz    dz2    dxz    dx2
  1 -0.000 -0.030 -0.013 -0.017  0.000  0.000  0.000  0.000  0.000
  1  0.000 -0.851 -0.375 -0.477  0.000  0.000  0.000  0.000  0.000
  2  0.032  0.002  0.003  0.002  0.000  0.000  0.000  0.000  0.000
  2  0.935  0.050  0.076  0.070  0.000  0.000  0.000  0.000  0.000
  3 -0.018  0.000 -0.003  0.001  0.000  0.000  0.000  0.000  0.000
  3 -0.523  0.003 -0.079  0.028  0.000  0.000  0.000  0.000  0.000
  4 -0.014 -0.000  0.001 -0.003  0.000  0.000  0.000  0.000  0.000
  4 -0.412 -0.009  0.022 -0.073  0.000  0.000  0.000  0.000  0.000
 
band   4 # energy   -4.68200496 # occ.  0.50555872
 
ion      s     py     pz     px    dxy    dyz    dz2    dxz    dx2    tot
  1  0.033  0.125  0.125  0.125  0.000  0.000  0.000  0.000  0.000  0.409
  2  0.009  0.004  0.001  0.001  0.000  0.000  0.000  0.000  0.000  0.015
  3  0.009  0.001  0.001  0.004  0.000  0.000  0.000  0.000  0.000  0.015
  4  0.009  0.001  0.004  0.001  0.000  0.000  0.000  0.000  0.000  0.015
tot  0.061  0.131  0.131  0.131  0.000  0.000  0.000  0.000  0.000  0.453
ion      s     py     pz     px    dxy    dyz    dz2    dxz    dx2
  1  0.120 -0.398  0.398  0.398  0.000  0.000  0.000  0.000  0.000
  1  0.141 -0.466  0.466  0.466  0.000  0.000  0.000  0.000  0.000
  2 -0.110 -0.052  0.023  0.023  0.000  0.000  0.000  0.000  0.000
  2 -0.129 -0.061  0.027  0.027  0.000  0.000  0.000  0.000  0.000
  3 -0.110 -0.023  0.023  0.052  0.000  0.000  0.000  0.000  0.000
  3 -0.129 -0.027  0.027  0.061  0.000  0.000  0.000  0.000  0.000
  4 -0.110 -0.023  0.052  0.023  0.000  0.000  0.000  0.000  0.000
  4 -0.129 -0.027  0.061  0.027  0.000  0.000  0.000  0.000  0.000
 
band   5 # energy   -0.79702631 # occ.  0.00000000
 
ion      s     py     pz     px    dxy    dyz    dz2    dxz    dx2    tot
  1  0.032  0.001  0.001  0.001  0.000  0.000  0.000  0.000  0.000  0.034
  2  0.000  0.001  0.001  0.001  0.000  0.000  0.000  0.000  0.000  0.003
  3  0.000  0.001  0.001  0.001  0.000  0.000  0.000  0.000  0.000  0.003
  4  0.000  0.001  0.001  0.001  0.000  0.000  0.000  0.000  0.000  0.003
tot  0.032  0.003  0.003  0.003  0.000  0.000  0.000  0.000  0.000  0.042
ion      s     py     pz     px    dxy    dyz    dz2    dxz    dx2
  1  0.022  0.006 -0.006 -0.006  0.000  0.000  0.000  0.000  0.000
  1  0.129  0.038 -0.038 -0.038  0.000  0.000  0.000  0.000  0.000
  2 -0.001  0.007  0.006  0.006  0.000  0.000  0.000  0.000  0.000
  2 -0.005  0.042  0.036  0.036  0.000  0.000  0.000  0.000  0.000
  3 -0.001 -0.006  0.006 -0.007  0.000  0.000  0.000  0.000  0.000
  3 -0.005 -0.036  0.036 -0.042  0.000  0.000  0.000  0.000  0.000
  4 -0.001 -0.006 -0.007  0.006  0.000  0.000  0.000  0.000  0.000
  4 -0.005 -0.036 -0.042  0.036  0.000  0.000  0.000  0.000  0.000
 
band   6 # energy    2.42368060 # occ.  0.00000000
 
ion      s     py     pz     px    dxy    dyz    dz2    dxz    dx2    tot
  1  0.000  0.000  0.000  0.000  0.000  0.000  0.000  0.000  0.000  0.000
  2  0.000  0.000  0.000  0.001  0.000  0.000  0.000  0.000  0.000  0.002
  3  0.000  0.000  0.000  0.001  0.000  0.000  0.000  0.000  0.000  0.002
  4  0.000  0.001  0.000  0.001  0.000  0.000  0.000  0.000  0.000  0.002
tot  0.001  0.001  0.000  0.003  0.000  0.000  0.000  0.000  0.000  0.005
ion      s     py     pz     px    dxy    dyz    dz2    dxz    dx2
  1  0.000 -0.000  0.000 -0.000  0.000  0.000  0.000  0.000  0.000
  1  0.000 -0.000  0.000 -0.000  0.000  0.000  0.000  0.000  0.000
  2 -0.008  0.009  0.004 -0.012  0.000  0.000  0.000  0.000  0.000
  2 -0.022  0.025  0.012 -0.036  0.000  0.000  0.000  0.000  0.000
  3  0.010 -0.009  0.002  0.012  0.000  0.000  0.000  0.000  0.000
  3  0.029 -0.026  0.006  0.034  0.000  0.000  0.000  0.000  0.000
  4 -0.002 -0.010 -0.003 -0.013  0.000  0.000  0.000  0.000  0.000
  4 -0.007 -0.030 -0.008 -0.038  0.000  0.000  0.000  0.000  0.000
 
band   7 # energy    2.42368098 # occ.  0.00000000
 
ion      s     py     pz     px    dxy    dyz    dz2    dxz    dx2    tot
  1  0.000  0.000  0.000  0.000  0.000  0.000  0.000  0.000  0.000  0.000
  2  0.000  0.000  0.001  0.000  0.000  0.000  0.000  0.000  0.000  0.002
  3  0.000  0.001  0.001  0.000  0.000  0.000  0.000  0.000  0.000  0.002
  4  0.000  0.000  0.001  0.000  0.000  0.000  0.000  0.000  0.000  0.002
tot  0.001  0.001  0.003  0.000  0.000  0.000  0.000  0.000  0.000  0.005
ion      s     py     pz     px    dxy    dyz    dz2    dxz    dx2
  1 -0.000  0.000  0.000 -0.000  0.000  0.000  0.000  0.000  0.000
  1 -0.000  0.000  0.000 -0.000  0.000  0.000  0.000  0.000  0.000
  2  0.005 -0.006  0.009 -0.003  0.000  0.000  0.000  0.000  0.000
  2  0.022 -0.025  0.038 -0.014  0.000  0.000  0.000  0.000  0.000
  3  0.002  0.007  0.009  0.002  0.000  0.000  0.000  0.000  0.000
  3  0.009  0.030  0.039  0.010  0.000  0.000  0.000  0.000  0.000
  4 -0.007  0.006 -0.008 -0.002  0.000  0.000  0.000  0.000  0.000
  4 -0.031  0.025 -0.035 -0.008  0.000  0.000  0.000  0.000  0.000
 
band   8 # energy    2.80511278 # occ.  0.00000000
 
ion      s     py     pz     px    dxy    dyz    dz2    dxz    dx2    tot
  1  0.000  0.050  0.006  0.021  0.000  0.000  0.000  0.000  0.000  0.077
  2  0.000  0.002  0.004  0.003  0.000  0.000  0.000  0.000  0.000  0.009
  3  0.000  0.001  0.003  0.001  0.000  0.000  0.000  0.000  0.000  0.004
  4  0.000  0.000  0.000  0.002  0.000  0.000  0.000  0.000  0.000  0.002
tot  0.000  0.053  0.013  0.027  0.000  0.000  0.000  0.000  0.000  0.093
ion      s     py     pz     px    dxy    dyz    dz2    dxz    dx2
  1  0.000 -0.013 -0.009 -0.005  0.000  0.000  0.000  0.000  0.000
  1  0.000  0.328  0.116  0.212  0.000  0.000  0.000  0.000  0.000
  2  0.000  0.003  0.003  0.003  0.000  0.000  0.000  0.000  0.000
  2 -0.004 -0.064 -0.081 -0.072  0.000  0.000  0.000  0.000  0.000
  3 -0.000  0.000 -0.002  0.001  0.000  0.000  0.000  0.000  0.000
  3  0.003 -0.030  0.069 -0.041  0.000  0.000  0.000  0.000  0.000
  4 -0.000  0.001  0.002 -0.003  0.000  0.000  0.000  0.000  0.000
  4  0.001 -0.003 -0.023  0.051  0.000  0.000  0.000  0.000  0.000
 
band   9 # energy    2.80511967 # occ.  0.00000000
 
ion      s     py     pz     px    dxy    dyz    dz2    dxz    dx2    tot
  1  0.000  0.001  0.045  0.031  0.000  0.000  0.000  0.000  0.000  0.077
  2  0.000  0.000  0.000  0.001  0.000  0.000  0.000  0.000  0.000  0.001
  3  0.000  0.003  0.001  0.001  0.000  0.000  0.000  0.000  0.000  0.006
  4  0.000  0.004  0.002  0.002  0.000  0.000  0.000  0.000  0.000  0.009
tot  0.000  0.009  0.049  0.035  0.000  0.000  0.000  0.000  0.000  0.093
ion      s     py     pz     px    dxy    dyz    dz2    dxz    dx2
  1 -0.000  0.010  0.077 -0.067  0.000  0.000  0.000  0.000  0.000
  1  0.000  0.055  0.303 -0.248  0.000  0.000  0.000  0.000  0.000
  2 -0.000 -0.002  0.004 -0.009  0.000  0.000  0.000  0.000  0.000
  2 -0.001 -0.011  0.011 -0.037  0.000  0.000  0.000  0.000  0.000
  3 -0.001  0.019 -0.012  0.013  0.000  0.000  0.000  0.000  0.000
  3 -0.003  0.073 -0.042  0.048  0.000  0.000  0.000  0.000  0.000
  4  0.001 -0.020 -0.015  0.015  0.000  0.000  0.000  0.000  0.000
  4  0.004 -0.079 -0.059  0.062  0.000  0.000  0.000  0.000  0.000
 
# of k-points:    1         # of bands:   9         # of ions:   4

 k-point    1 :    0.00000000 0.00000000 0.00000000     weight = 1.00000000

band   1 # energy  -16.35470412 # occ.  1.00000000
 
ion      s     py     pz     px    dxy    dyz    dz2    dxz    dx2    tot
  1  0.409  0.004  0.004  0.004  0.000  0.000  0.000  0.000  0.000  0.422
  2  0.087  0.003  0.002  0.002  0.000  0.000  0.000  0.000  0.000  0.094
  3  0.087  0.002  0.002  0.003  0.000  0.000  0.000  0.000  0.000  0.094
  4  0.087  0.002  0.003  0.002  0.000  0.000  0.000  0.000  0.000  0.094
tot  0.668  0.012  0.012  0.012  0.000  0.000  0.000  0.000  0.000  0.704
ion      s     py     pz     px    dxy    dyz    dz2    dxz    dx2
  1  0.731  0.095 -0.095 -0.095  0.000  0.000  0.000  0.000  0.000
  1 -0.722 -0.094  0.094  0.094  0.000  0.000  0.000  0.000  0.000
  2  0.460  0.052  0.043  0.043  0.000  0.000  0.000  0.000  0.000
  2 -0.455 -0.051 -0.043 -0.043  0.000  0.000  0.000  0.000  0.000
  3  0.460 -0.043  0.043 -0.052  0.000  0.000  0.000  0.000  0.000
  3 -0.455  0.043 -0.043  0.051  0.000  0.000  0.000  0.000  0.000
  4  0.460 -0.043 -0.052  0.043  0.000  0.000  0.000  0.000  0.000
  4 -0.455  0.043  0.051 -0.043  0.000  0.000  0.000  0.000  0.000
 
band   2 # energy   -9.29000903 # occ.  1.00000000
 
ion      s     py     pz     px    dxy    dyz    dz2    dxz    dx2    tot
  1  0.000  0.010  0.190  0.113  0.000  0.000  0.000  0.000  0.000  0.313
  2  0.011  0.000  0.001  0.002  0.000  0.000  0.000  0.000  0.000  0.014
  3  0.126  0.004  0.000  0.001  0.000  0.000  0.000  0.000  0.000  0.131
  4  0.211  0.004  0.001  0.002  0.000  0.000  0.000  0.000  0.000  0.218
tot  0.348  0.018  0.192  0.118  0.000  0.000  0.000  0.000  0.000  0.676
ion      s     py     pz     px    dxy    dyz    dz2    dxz    dx2
  1  0.000 -0.147 -0.647  0.500  0.000  0.000  0.000  0.000  0.000
  1 -0.000  0.113  0.495 -0.382  0.000  0.000  0.000  0.000  0.000
  2  0.162  0.009 -0.023  0.048  0.000  0.000  0.000  0.000  0.000
  2 -0.124 -0.007  0.018 -0.037  0.000  0.000  0.000  0.000  0.000
  3  0.549 -0.067  0.018 -0.029  0.000  0.000  0.000  0.000  0.000
  3 -0.420  0.052 -0.014  0.023  0.000  0.000  0.000  0.000  0.000
  4 -0.711  0.066  0.038 -0.044  0.000  0.000  0.000  0.000  0.000
  4  0.543 -0.051 -0.029  0.034  0.000  0.000  0.000  0.000  0.000
 
band   3 # energy   -9.29000469 # occ.  1.00000000
 
ion      s     py     pz     px    dxy    dyz    dz2    dxz    dx2    tot
  1  0.000  0.199  0.019  0.095  0.000  0.000  0.000  0.000  0.000  0.313
  2  0.221  0.001  0.004  0.002  0.000  0.000  0.000  0.000  0.000  0.229
  3  0.106  0.000  0.004  0.001  0.000  0.000  0.000  0.000  0.000  0.111
  4  0.021  0.000  0.000  0.003  0.000  0.000  0.000  0.000  0.000  0.024
tot  0.348  0.201  0.027  0.101  0.000  0.000  0.000  0.000  0.000  0.676
ion      s     py     pz     px    dxy    dyz    dz2    dxz    dx2
  1 -0.000  0.383  0.118  0.265  0.000  0.000  0.000  0.000  0.000
  1  0.000 -0.740 -0.228 -0.513  0.000  0.000  0.000  0.000  0.000
  2 -0.421 -0.023 -0.037 -0.028  0.000  0.000  0.000  0.000  0.000
  2  0.813  0.044  0.072  0.054  0.000  0.000  0.000  0.000  0.000
  3  0.291 -0.007  0.038 -0.016  0.000  0.000  0.000  0.000  0.000
  3 -0.563  0.014 -0.074  0.030  0.000  0.000  0.000  0.000  0.000
  4  0.129  0.010 -0.007  0.030  0.000  0.000  0.000  0.000  0.000
  4 -0.250 -0.020  0.013 -0.058  0.000  0.000  0.000  0.000  0.000
 
band   4 # energy   -4.68101967 # occ.  0.49444128
 
ion      s     py     pz     px    dxy    dyz    dz2    dxz    dx2    tot
  1  0.033  0.125  0.125  0.125  0.000  0.000  0.000  0.000  0.000  0.409
  2  0.009  0.004  0.001  0.001  0.000  0.000  0.000  0.000  0.000  0.015
  3  0.009  0.001  0.001  0.004  0.000  0.000  0.000  0.000  0.000  0.015
  4  0.009  0.001  0.004  0.001  0.000  0.000  0.000  0.000  0.000  0.015
tot  0.061  0.131  0.131  0.131  0.000  0.000  0.000  0.000  0.000  0.453
ion      s     py     pz     px    dxy    dyz    dz2    dxz    dx2
  1  0.172 -0.568  0.568  0.568  0.000  0.000  0.000  0.000  0.000
  1 -0.069  0.228 -0.228 -0.228  0.000  0.000  0.000  0.000  0.000
  2 -0.157 -0.074  0.033  0.033  0.000  0.000  0.000  0.000  0.000
  2  0.063  0.030 -0.013 -0.013  0.000  0.000  0.000  0.000  0.000
  3 -0.157 -0.033  0.033  0.074  0.000  0.000  0.000  0.000  0.000
  3  0.063  0.013 -0.013 -0.030  0.000  0.000  0.000  0.000  0.000
  4 -0.157 -0.033  0.074  0.033  0.000  0.000  0.000  0.000  0.000
  4  0.063  0.013 -0.030 -0.013  0.000  0.000  0.000  0.000  0.000
 
band   5 # energy   -0.79659095 # occ.  0.00000000
 
ion      s     py     pz     px    dxy    dyz    dz2    dxz    dx2    tot
  1  0.032  0.001  0.001  0.001  0.000  0.000  0.000  0.000  0.000  0.034
  2  0.000  0.001  0.001  0.001  0.000  0.000  0.000  0.000  0.000  0.003
  3  0.000  0.001  0.001  0.001  0.000  0.000  0.000  0.000  0.000  0.003
  4  0.000  0.001  0.001  0.001  0.000  0.000  0.000  0.000  0.000  0.003
tot  0.032  0.003  0.003  0.003  0.000  0.000  0.000  0.000  0.000  0.042
ion      s     py     pz     px    dxy    dyz    dz2    dxz    dx2
  1 -0.115 -0.033  0.033  0.033  0.000  0.000  0.000  0.000  0.000
  1  0.063  0.018 -0.018 -0.018  0.000  0.000  0.000  0.000  0.000
  2  0.005 -0.038 -0.032 -0.032  0.000  0.000  0.000  0.000  0.000
  2 -0.003  0.021  0.018  0.018  0.000  0.000  0.000  0.000  0.000
  3  0.005  0.032 -0.032  0.038  0.000  0.000  0.000  0.000  0.000
  3 -0.003 -0.018  0.018 -0.021  0.000  0.000  0.000  0.000  0.000
  4  0.005  0.032  0.038 -0.032  0.000  0.000  0.000  0.000  0.000
  4 -0.003 -0.018 -0.021  0.018  0.000  0.000  0.000  0.000  0.000
 
band   6 # energy    2.42471805 # occ.  0.00000000
 
ion      s     py     pz     px    dxy    dyz    dz2    dxz    dx2    tot
  1  0.000  0.000  0.000  0.000  0.000  0.000  0.000  0.000  0.000  0.000
  2  0.000  0.000  0.001  0.001  0.000  0.000  0.000  0.000  0.000  0.002
  3  0.000  0.000  0.001  0.000  0.000  0.000  0.000  0.000  0.000  0.002
  4  0.000  0.000  0.001  0.000  0.000  0.000  0.000  0.000  0.000  0.002
tot  0.001  0.000  0.003  0.001  0.000  0.000  0.000  0.000  0.000  0.005
ion      s     py     pz     px    dxy    dyz    dz2    dxz    dx2
  1 -0.000  0.000  0.000 -0.000  0.000  0.000  0.000  0.000  0.000
  1 -0.000 -0.000 -0.000  0.000  0.000  0.000  0.000  0.000  0.000
  2  0.007 -0.008  0.032 -0.025  0.000  0.000  0.000  0.000  0.000
  2 -0.005  0.006 -0.024  0.019  0.000  0.000  0.000  0.000  0.000
  3  0.018  0.011  0.031  0.021  0.000  0.000  0.000  0.000  0.000
  3 -0.014 -0.008 -0.023 -0.016  0.000  0.000  0.000  0.000  0.000
  4 -0.025  0.006 -0.029 -0.021  0.000  0.000  0.000  0.000  0.000
  4  0.019 -0.004  0.022  0.016  0.000  0.000  0.000  0.000  0.000
 
band   7 # energy    2.42471917 # occ.  0.00000000
 
ion      s     py     pz     px    dxy    dyz    dz2    dxz    dx2    tot
  1  0.000  0.000  0.000  0.000  0.000  0.000  0.000  0.000  0.000  0.000
  2  0.000  0.001  0.000  0.000  0.000  0.000  0.000  0.000  0.000  0.002
  3  0.000  0.001  0.000  0.000  0.000  0.000  0.000  0.000  0.000  0.002
  4  0.000  0.001  0.000  0.001  0.000  0.000  0.000  0.000  0.000  0.002
tot  0.001  0.003  0.000  0.001  0.000  0.000  0.000  0.000  0.000  0.005
ion      s     py     pz     px    dxy    dyz    dz2    dxz    dx2
  1 -0.000 -0.000 -0.000 -0.000  0.000  0.000  0.000  0.000  0.000
  1  0.000  0.000  0.000  0.000  0.000  0.000  0.000  0.000  0.000
  2 -0.021  0.024 -0.005 -0.018  0.000  0.000  0.000  0.000  0.000
  2  0.023 -0.027  0.005  0.020  0.000  0.000  0.000  0.000  0.000
  3  0.015 -0.026 -0.009  0.018  0.000  0.000  0.000  0.000  0.000
  3 -0.017  0.029  0.010 -0.020  0.000  0.000  0.000  0.000  0.000
  4  0.006 -0.027  0.006 -0.021  0.000  0.000  0.000  0.000  0.000
  4 -0.006  0.030 -0.007  0.023  0.000  0.000  0.000  0.000  0.000
 
band   8 # energy    2.80507330 # occ.  0.00000000
 
ion      s     py     pz     px    dxy    dyz    dz2    dxz    dx2    tot
  1  0.000  0.046  0.002  0.029  0.000  0.000  0.000  0.000  0.000  0.077
  2  0.000  0.002  0.004  0.003  0.000  0.000  0.000  0.000  0.000  0.009
  3  0.000  0.001  0.003  0.001  0.000  0.000  0.000  0.000  0.000  0.006
  4  0.000  0.000  0.000  0.001  0.000  0.000  0.000  0.000  0.000  0.001
tot  0.000  0.050  0.010  0.034  0.000  0.000  0.000  0.000  0.000  0.093
ion      s     py     pz     px    dxy    dyz    dz2    dxz    dx2
  1  0.000  0.279  0.064  0.214  0.000  0.000  0.000  0.000  0.000
  1  0.000 -0.149 -0.022 -0.127  0.000  0.000  0.000  0.000  0.000
  2 -0.004 -0.054 -0.071 -0.058  0.000  0.000  0.000  0.000  0.000
  2  0.002  0.029  0.039  0.030  0.000  0.000  0.000  0.000  0.000
  3  0.003 -0.035  0.065 -0.042  0.000  0.000  0.000  0.000  0.000
  3 -0.002  0.022 -0.037  0.025  0.000  0.000  0.000  0.000  0.000
  4  0.001  0.007 -0.013  0.037  0.000  0.000  0.000  0.000  0.000
  4 -0.000 -0.007  0.004 -0.017  0.000  0.000  0.000  0.000  0.000
 
band   9 # energy    2.80507490 # occ.  0.00000000
 
ion      s     py     pz     px    dxy    dyz    dz2    dxz    dx2    tot
  1  0.000  0.005  0.049  0.023  0.000  0.000  0.000  0.000  0.000  0.077
  2  0.000  0.000  0.000  0.001  0.000  0.000  0.000  0.000  0.000  0.002
  3  0.000  0.003  0.001  0.001  0.000  0.000  0.000  0.000  0.000  0.005
  4  0.000  0.004  0.002  0.003  0.000  0.000  0.000  0.000  0.000  0.009
tot  0.000  0.012  0.052  0.028  0.000  0.000  0.000  0.000  0.000  0.093
ion      s     py     pz     px    dxy    dyz    dz2    dxz    dx2
  1 -0.000 -0.091 -0.262  0.171  0.000  0.000  0.000  0.000  0.000
  1 -0.000  0.054  0.195 -0.140  0.000  0.000  0.000  0.000  0.000
  2  0.001  0.018  0.002  0.040  0.000  0.000  0.000  0.000  0.000
  2 -0.001 -0.011  0.002 -0.027  0.000  0.000  0.000  0.000  0.000
  3  0.002 -0.055  0.024 -0.033  0.000  0.000  0.000  0.000  0.000
  3 -0.002  0.044 -0.022  0.027  0.000  0.000  0.000  0.000  0.000
  4 -0.003  0.065  0.051 -0.058  0.000  0.000  0.000  0.000  0.000
  4  0.003 -0.049 -0.038  0.042  0.000  0.000  0.000  0.000  0.000
 
