<?xml version="1.0" encoding="ISO-8859-1"?>
<modeling>
 <generator>
  <i name="program" type="string">vasp </i>
  <i name="version" type="string">5.4.1  </i>
  <i name="subversion" type="string">05Feb16 (build Mar 30 2017 12:50:32) complex                          parallel </i>
  <i name="platform" type="string">LinuxIFC </i>
  <i name="date" type="string">2018 01 11 </i>
  <i name="time" type="string">15:45:20 </i>
 </generator>
 <incar>
  <i type="string" name="SYSTEM"> Screening bandgap</i>
  <i type="int" name="ISTART">     1</i>
  <i type="string" name="PREC">normal</i>
  <i type="int" name="ISPIN">     2</i>
  <i name="EDIFF">      0.00010000</i>
  <i type="int" name="ISYM">     0</i>
  <i name="ENCUT">    300.00000000</i>
  <i type="logical" name="LREAL"> F  </i>
  <i type="int" name="ISMEAR">     0</i>
  <i name="SIGMA">      0.05000000</i>
  <i type="logical" name="LORBIT"> F  </i>
  <v type="int" name="KPOINT_BSE">    -1     0     0     0</v>
  <i type="string" name="GGA"> PE</i>
  <i type="logical" name="LWANNIER90_RUN"> T  </i>
 </incar>
 <kpoints>
  <generation param="Gamma">
   <v type="int" name="divisions">       1        1        1 </v>
   <v name="usershift">      0.00000000       0.00000000       0.00000000 </v>
   <v name="genvec1">      1.00000000       0.00000000       0.00000000 </v>
   <v name="genvec2">      0.00000000       1.00000000       0.00000000 </v>
   <v name="genvec3">      0.00000000       0.00000000       1.00000000 </v>
   <v name="shift">      0.00000000       0.00000000       0.00000000 </v>
  </generation>
  <varray name="kpointlist" >
   <v>       0.00000000       0.00000000       0.00000000 </v>
  </varray>
  <varray name="weights" >
   <v>       1.00000000 </v>
  </varray>
 </kpoints>
 <parameters>
  <separator name="general" >
   <i type="string" name="SYSTEM">Screening bandgap</i>
   <i type="logical" name="LCOMPAT"> F  </i>
  </separator>
  <separator name="electronic" >
   <i type="string" name="PREC">normal</i>
   <i name="ENMAX">    300.00000000</i>
   <i name="ENAUG">    644.87300000</i>
   <i name="EDIFF">      0.00010000</i>
   <i type="int" name="IALGO">    38</i>
   <i type="int" name="IWAVPR">    10</i>
   <i type="int" name="NBANDS">     9</i>
   <i name="NELECT">      7.00000000</i>
   <i type="int" name="TURBO">     0</i>
   <i type="int" name="IRESTART">     0</i>
   <i type="int" name="NREBOOT">     0</i>
   <i type="int" name="NMIN">     0</i>
   <i name="EREF">      0.00000000</i>
   <separator name="electronic smearing" >
    <i type="int" name="ISMEAR">     0</i>
    <i name="SIGMA">      0.05000000</i>
    <i name="KSPACING">      0.50000000</i>
    <i type="logical" name="KGAMMA"> T  </i>
   </separator>
   <separator name="electronic projectors" >
    <i type="logical" name="LREAL"> F  </i>
    <v name="ROPT">      0.00000000      0.00000000</v>
    <i type="int" name="LMAXPAW">  -100</i>
    <i type="int" name="LMAXMIX">     2</i>
    <i type="logical" name="NLSPLINE"> F  </i>
   </separator>
   <separator name="electronic startup" >
    <i type="int" name="ISTART">     1</i>
    <i type="int" name="ICHARG">     0</i>
    <i type="int" name="INIWAV">     1</i>
   </separator>
   <separator name="electronic spin" >
    <i type="int" name="ISPIN">     2</i>
    <i type="logical" name="LNONCOLLINEAR"> F  </i>
    <v name="MAGMOM">      1.00000000      1.00000000      1.00000000      1.00000000</v>
    <i name="NUPDOWN">     -1.00000000</i>
    <i type="logical" name="LSORBIT"> F  </i>
    <v name="SAXIS">      0.00000000      0.00000000      1.00000000</v>
    <i type="logical" name="LSPIRAL"> F  </i>
    <v name="QSPIRAL">      0.00000000      0.00000000      0.00000000</v>
    <i type="logical" name="LZEROZ"> F  </i>
   </separator>
   <separator name="electronic exchange-correlation" >
    <i type="logical" name="LASPH"> F  </i>
    <i type="logical" name="LMETAGGA"> F  </i>
   </separator>
   <separator name="electronic convergence" >
    <i type="int" name="NELM">    60</i>
    <i type="int" name="NELMDL">     0</i>
    <i type="int" name="NELMIN">     2</i>
    <i name="ENINI">    300.00000000</i>
    <separator name="electronic convergence detail" >
     <i type="logical" name="LDIAG"> T  </i>
     <i type="logical" name="LSUBROT"> F  </i>
     <i name="WEIMIN">      0.00000000</i>
     <i name="EBREAK">      0.00000278</i>
     <i name="DEPER">      0.30000000</i>
     <i type="int" name="NRMM">     4</i>
     <i name="TIME">      0.40000000</i>
    </separator>
   </separator>
   <separator name="electronic mixer" >
    <i name="AMIX">      0.40000000</i>
    <i name="BMIX">      1.00000000</i>
    <i name="AMIN">      0.10000000</i>
    <i name="AMIX_MAG">      1.60000000</i>
    <i name="BMIX_MAG">      1.00000000</i>
    <separator name="electronic mixer details" >
     <i type="int" name="IMIX">     4</i>
     <i type="logical" name="MIXFIRST"> F  </i>
     <i type="int" name="MAXMIX">   -45</i>
     <i name="WC">    100.00000000</i>
     <i type="int" name="INIMIX">     1</i>
     <i type="int" name="MIXPRE">     1</i>
     <i type="int" name="MREMOVE">     5</i>
    </separator>
   </separator>
   <separator name="electronic dipolcorrection" >
    <i type="logical" name="LDIPOL"> F  </i>
    <i type="logical" name="LMONO"> F  </i>
    <i type="int" name="IDIPOL">     0</i>
    <i name="EPSILON">      1.00000000</i>
    <v name="DIPOL">   -100.00000000   -100.00000000   -100.00000000</v>
    <i name="EFIELD">      0.00000000</i>
   </separator>
  </separator>
  <separator name="grids" >
   <i type="int" name="NGX">    28</i>
   <i type="int" name="NGY">    28</i>
   <i type="int" name="NGZ">    28</i>
   <i type="int" name="NGXF">    56</i>
   <i type="int" name="NGYF">    56</i>
   <i type="int" name="NGZF">    56</i>
   <i type="logical" name="ADDGRID"> F  </i>
  </separator>
  <separator name="ionic" >
   <i type="int" name="NSW">     0</i>
   <i type="int" name="IBRION">    -1</i>
   <i type="int" name="ISIF">     2</i>
   <i name="PSTRESS">      0.00000000</i>
   <i name="EDIFFG">      0.00100000</i>
   <i type="int" name="NFREE">     0</i>
   <i name="POTIM">      0.50000000</i>
   <i name="SMASS">     -3.00000000</i>
   <i name="SCALEE">      1.00000000</i>
  </separator>
  <separator name="ionic md" >
   <i name="TEBEG">      0.00010000</i>
   <i name="TEEND">      0.00010000</i>
   <i type="int" name="NBLOCK">     1</i>
   <i type="int" name="KBLOCK">     1</i>
   <i type="int" name="NPACO">   256</i>
   <i name="APACO">     16.00000000</i>
  </separator>
  <separator name="symmetry" >
   <i type="int" name="ISYM">     0</i>
   <i name="SYMPREC">      0.00001000</i>
  </separator>
  <separator name="dos" >
   <i type="logical" name="LORBIT"> F  </i>
   <v name="RWIGS">     -1.00000000     -1.00000000</v>
   <i type="int" name="NEDOS">   301</i>
   <i name="EMIN">     10.00000000</i>
   <i name="EMAX">    -10.00000000</i>
   <i name="EFERMI">      0.00000000</i>
  </separator>
  <separator name="writing" >
   <i type="int" name="NWRITE">     2</i>
   <i type="logical" name="LWAVE"> T  </i>
   <i type="logical" name="LCHARG"> T  </i>
   <i type="logical" name="LPARD"> F  </i>
   <i type="logical" name="LVTOT"> F  </i>
   <i type="logical" name="LVHAR"> F  </i>
   <i type="logical" name="LELF"> F  </i>
   <i type="logical" name="LOPTICS"> F  </i>
   <v name="STM">      0.00000000      0.00000000      0.00000000      0.00000000      0.00000000      0.00000000      0.00000000</v>
  </separator>
  <separator name="performance" >
   <i type="int" name="NPAR">     1</i>
   <i type="int" name="NSIM">     4</i>
   <i type="int" name="NBLK">    -1</i>
   <i type="logical" name="LPLANE"> T  </i>
   <i type="logical" name="LSCALAPACK"> F  </i>
   <i type="logical" name="LSCAAWARE"> F  </i>
   <i type="logical" name="LSCALU"> F  </i>
   <i type="logical" name="LASYNC"> F  </i>
   <i type="logical" name="LORBITALREAL"> F  </i>
  </separator>
  <separator name="miscellaneous" >
   <i type="int" name="IDIOT">     3</i>
   <i type="logical" name="LMUSIC"> F  </i>
   <v name="POMASS">     12.01100000      1.00000000</v>
   <v name="DARWINR">      0.00000000      0.00000000</v>
   <v name="DARWINV">      1.00000000      1.00000000</v>
   <i type="logical" name="LCORR"> T  </i>
  </separator>
  <i type="logical" name="GGA_COMPAT"> T  </i>
  <i type="logical" name="LBERRY"> F  </i>
  <i type="int" name="ICORELEVEL">     0</i>
  <i type="logical" name="LDAU"> F  </i>
  <i type="int" name="I_CONSTRAINED_M">     0</i>
  <separator name="electronic exchange-correlation" >
   <i type="string" name="GGA">PE</i>
   <i type="int" name="VOSKOWN">     0</i>
   <i type="logical" name="LHFCALC"> F  </i>
   <i type="string" name="PRECFOCK"></i>
   <i type="logical" name="LSYMGRAD"> F  </i>
   <i type="logical" name="LHFONE"> F  </i>
   <i type="logical" name="LRHFCALC"> F  </i>
   <i type="logical" name="LTHOMAS"> F  </i>
   <i type="logical" name="LMODELHF"> F  </i>
   <i name="ENCUT4O">     -1.00000000</i>
   <i type="int" name="EXXOEP">     0</i>
   <i type="int" name="FOURORBIT">     0</i>
   <i name="AEXX">      0.00000000</i>
   <i name="HFALPHA">      0.00000000</i>
   <i name="MCALPHA">      0.00000000</i>
   <i name="ALDAX">      1.00000000</i>
   <i name="AGGAX">      1.00000000</i>
   <i name="ALDAC">      1.00000000</i>
   <i name="AGGAC">      1.00000000</i>
   <i type="int" name="NKREDX">     1</i>
   <i type="int" name="NKREDY">     1</i>
   <i type="int" name="NKREDZ">     1</i>
   <i type="logical" name="SHIFTRED"> F  </i>
   <i type="logical" name="ODDONLY"> F  </i>
   <i type="logical" name="EVENONLY"> F  </i>
   <i type="int" name="LMAXFOCK">     0</i>
   <i type="int" name="NMAXFOCKAE">     0</i>
   <i type="logical" name="LFOCKAEDFT"> F  </i>
   <i name="HFSCREEN">      0.00000000</i>
   <i name="HFSCREENC">      0.00000000</i>
   <i type="int" name="NBANDSGWLOW">     0</i>
  </separator>
  <separator name="vdW DFT" >
   <i type="logical" name="LUSE_VDW"> F  </i>
   <i name="Zab_VDW">     -0.84910000</i>
   <i name="PARAM1">      0.12340000</i>
   <i name="PARAM2">      1.00000000</i>
   <i name="PARAM3">      0.00000000</i>
  </separator>
  <separator name="model GW" >
   <i type="int" name="MODEL_GW">     0</i>
   <i name="MODEL_EPS0">     38.40718125</i>
   <i name="MODEL_ALPHA">      1.00000000</i>
  </separator>
  <separator name="linear response parameters" >
   <i type="logical" name="LEPSILON"> F  </i>
   <i type="logical" name="LRPA"> F  </i>
   <i type="logical" name="LNABLA"> F  </i>
   <i type="logical" name="LVEL"> F  </i>
   <i type="int" name="KINTER">     0</i>
   <i name="CSHIFT">      0.10000000</i>
   <i name="OMEGAMAX">     -1.00000000</i>
   <i name="DEG_THRESHOLD">      0.00200000</i>
  </separator>
  <separator name="orbital magnetization" >
   <i type="logical" name="NUCIND"> F  </i>
   <v name="MAGPOS">      0.00000000      0.00000000      0.00000000</v>
   <i type="logical" name="LNICSALL"> T  </i>
   <i type="logical" name="ORBITALMAG"> F  </i>
   <i type="logical" name="LMAGBLOCH"> F  </i>
   <i type="logical" name="LCHIMAG"> F  </i>
   <i type="logical" name="LGAUGE"> T  </i>
   <i type="int" name="MAGATOM">     0</i>
   <v name="MAGDIPOL">      0.00000000      0.00000000      0.00000000</v>
   <v name="AVECCONST">      0.00000000      0.00000000      0.00000000</v>
  </separator>
  <separator name="response functions" >
   <i type="logical" name="LADDER"> F  </i>
   <i type="logical" name="LFXC"> F  </i>
   <i type="logical" name="LHARTREE"> T  </i>
   <i type="int" name="IBSE">     0</i>
   <v type="int" name="KPOINT">    -1     0     0     0</v>
   <i type="logical" name="LTCTE"> F  </i>
   <i type="logical" name="LTETE"> F  </i>
   <i type="logical" name="LTRIPLET"> F  </i>
   <i type="logical" name="LFXCEPS"> F  </i>
   <i type="logical" name="LFXHEG"> F  </i>
   <i type="int" name="NATURALO">     0</i>
   <i type="logical" name="L2ORDER"> F  </i>
   <i type="logical" name="LUSEW"> F  </i>
   <i name="ENCUTGW">     -2.00000000</i>
   <i name="ENCUTGWSOFT">     -2.00000000</i>
   <i name="ENCUTLF">     -1.00000000</i>
   <i type="int" name="LMAXMP2">    -1</i>
   <i name="SCISSOR">      0.00000000</i>
   <i type="int" name="NOMEGA">     0</i>
   <i type="int" name="NOMEGAR">     0</i>
   <i type="int" name="NBANDSGW">    -1</i>
   <i type="int" name="NBANDSO">    -1</i>
   <i type="int" name="NBANDSV">    -1</i>
   <i type="int" name="NELM">     1</i>
   <i type="int" name="NELMHF">     1</i>
   <i type="int" name="DIM">     3</i>
   <i type="int" name="ANTIRES">     0</i>
   <i name="OMEGAMAX">    -30.00000000</i>
   <i name="OMEGAMIN">    -30.00000000</i>
   <i name="OMEGATL">   -200.00000000</i>
   <i type="int" name="OMEGAGRID">     0</i>
   <i name="CSHIFT">     -0.10000000</i>
   <i type="logical" name="SELFENERGY"> F  </i>
   <i type="logical" name="LSPECTRAL"> F  </i>
   <i type="logical" name="LSPECTRALGW"> F  </i>
   <i type="logical" name="LSINGLES"> F  </i>
   <i type="logical" name="LFERMIGW"> F  </i>
   <i type="logical" name="ODDONLYGW"> F  </i>
   <i type="logical" name="EVENONLYGW"> F  </i>
   <i type="int" name="NKREDLFX">     1</i>
   <i type="int" name="NKREDLFY">     1</i>
   <i type="int" name="NKREDLFZ">     1</i>
   <i type="int" name="MAXMEM">  1800</i>
   <i type="int" name="TELESCOPE">     0</i>
   <i type="int" name="TAUPAR">     1</i>
   <i type="int" name="OMEGAPAR">    -1</i>
   <i name="LAMBDA">      1.00000000</i>
  </separator>
  <separator name="External order field" >
   <i name="OFIELD_KAPPA">      0.00000000</i>
   <v name="OFIELD_K">      0.00000000      0.00000000      0.00000000</v>
   <i name="OFIELD_Q6_NEAR">      0.00000000</i>
   <i name="OFIELD_Q6_FAR">      0.00000000</i>
   <i name="OFIELD_A">      0.00000000</i>
  </separator>
 </parameters>
 <atominfo>
  <atoms>       4 </atoms>
  <types>       2 </types>
  <array name="atoms" >
   <dimension dim="1">ion</dimension>
   <field type="string">element</field>
   <field type="int">atomtype</field>
   <set>
    <rc><c>C </c><c>   1</c></rc>
    <rc><c>H </c><c>   2</c></rc>
    <rc><c>H </c><c>   2</c></rc>
    <rc><c>H </c><c>   2</c></rc>
   </set>
  </array>
  <array name="atomtypes" >
   <dimension dim="1">type</dimension>
   <field type="int">atomspertype</field>
   <field type="string">element</field>
   <field>mass</field>
   <field>valence</field>
   <field type="string">pseudopotential</field>
   <set>
    <rc><c>   1</c><c>C </c><c>     12.01100000</c><c>      4.00000000</c><c>  PAW_PBE C 08Apr2002                   </c></rc>
    <rc><c>   3</c><c>H </c><c>      1.00000000</c><c>      1.00000000</c><c>  PAW_PBE H 15Jun2001                   </c></rc>
   </set>
  </array>
 </atominfo>
 <structure name="initialpos" >
  <crystal>
   <varray name="basis" >
    <v>       6.35000000       0.00000000       0.00000000 </v>
    <v>       0.00000000       6.35000000       0.00000000 </v>
    <v>       0.00000000       0.00000000       6.35000000 </v>
   </varray>
   <i name="volume">    256.04787500 </i>
   <varray name="rec_basis" >
    <v>       0.15748031       0.00000000       0.00000000 </v>
    <v>       0.00000000       0.15748031       0.00000000 </v>
    <v>       0.00000000       0.00000000       0.15748031 </v>
   </varray>
  </crystal>
  <varray name="positions" >
   <v>       0.50000000       0.50000000       0.50000000 </v>
   <v>       0.40098670       0.40098670       0.40098670 </v>
   <v>       0.59901330       0.59901330       0.40098670 </v>
   <v>       0.40098670       0.59901330       0.59901330 </v>
  </varray>
 </structure>
 <calculation>
  <scstep>
   <time name="dav">    1.33    0.07</time>
   <time name="total">   10.50    0.68</time>
   <energy>
    <i name="alphaZ">      0.76124932 </i>
    <i name="ewald">     28.04274487 </i>
    <i name="hartreedc">   -176.04826495 </i>
    <i name="XCdc">     21.21729853 </i>
    <i name="pawpsdc">    353.21185966 </i>
    <i name="pawaedc">   -353.89154192 </i>
    <i name="eentropy">     -0.02802107 </i>
    <i name="bandstr">    -74.55662191 </i>
    <i name="atom">    184.23722981 </i>
    <i name="e_fr_energy">    -17.05406765 </i>
    <i name="e_wo_entrp">    -17.02604658 </i>
    <i name="e_0_energy">    -17.04005711 </i>
   </energy>
  </scstep>
  <scstep>
   <time name="dav">    1.04    0.05</time>
   <time name="total">    5.28    0.44</time>
   <energy>
    <i name="e_fr_energy">    -17.14638267 </i>
    <i name="e_wo_entrp">    -17.14636830 </i>
    <i name="e_0_energy">    -17.14637549 </i>
   </energy>
  </scstep>
  <scstep>
   <time name="dav">    1.93    0.09</time>
   <time name="total">    9.73    0.53</time>
   <energy>
    <i name="e_fr_energy">    -16.98080289 </i>
    <i name="e_wo_entrp">    -16.95259345 </i>
    <i name="e_0_energy">    -16.96669817 </i>
   </energy>
  </scstep>
  <scstep>
   <time name="dav">    1.10    0.06</time>
   <time name="total">    6.10    0.62</time>
   <energy>
    <i name="e_fr_energy">    -17.05280942 </i>
    <i name="e_wo_entrp">    -17.02610584 </i>
    <i name="e_0_energy">    -17.03945763 </i>
   </energy>
  </scstep>
  <scstep>
   <time name="dav">    1.38    0.06</time>
   <time name="total">    9.00    0.40</time>
   <energy>
    <i name="e_fr_energy">    -17.05142657 </i>
    <i name="e_wo_entrp">    -17.02322580 </i>
    <i name="e_0_energy">    -17.03732618 </i>
   </energy>
  </scstep>
  <scstep>
   <time name="dav">    1.47    0.07</time>
   <time name="total">    9.65    0.44</time>
   <energy>
    <i name="e_fr_energy">    -17.05395123 </i>
    <i name="e_wo_entrp">    -17.02583684 </i>
    <i name="e_0_energy">    -17.03989404 </i>
   </energy>
  </scstep>
  <scstep>
   <time name="dav">    2.01    0.10</time>
   <time name="total">    9.59    0.45</time>
   <energy>
    <i name="e_fr_energy">    -17.05373887 </i>
    <i name="e_wo_entrp">    -17.02553589 </i>
    <i name="e_0_energy">    -17.03963738 </i>
   </energy>
  </scstep>
  <scstep>
   <time name="dav">    4.59    0.21</time>
   <time name="total">   11.12    0.67</time>
   <energy>
    <i name="e_fr_energy">    -17.05384444 </i>
    <i name="e_wo_entrp">    -17.02563615 </i>
    <i name="e_0_energy">    -17.03974030 </i>
   </energy>
  </scstep>
  <scstep>
   <time name="dav">    2.30    0.11</time>
   <time name="total">    6.97    0.52</time>
   <energy>
    <i name="alphaZ">      0.76124932 </i>
    <i name="ewald">     28.04274487 </i>
    <i name="hartreedc">   -176.05372388 </i>
    <i name="XCdc">     21.21775085 </i>
    <i name="pawpsdc">    353.23220125 </i>
    <i name="pawaedc">   -353.91188434 </i>
    <i name="eentropy">     -0.02820674 </i>
    <i name="bandstr">    -74.55123862 </i>
    <i name="atom">    184.23722981 </i>
    <i name="e_fr_energy">    -17.05387748 </i>
    <i name="e_wo_entrp">    -17.02567074 </i>
    <i name="e_0_energy">    -17.03977411 </i>
   </energy>
  </scstep>
  <structure>
   <crystal>
    <varray name="basis" >
     <v>       6.35000000       0.00000000       0.00000000 </v>
     <v>       0.00000000       6.35000000       0.00000000 </v>
     <v>       0.00000000       0.00000000       6.35000000 </v>
    </varray>
    <i name="volume">    256.04787500 </i>
    <varray name="rec_basis" >
     <v>       0.15748031       0.00000000       0.00000000 </v>
     <v>       0.00000000       0.15748031       0.00000000 </v>
     <v>       0.00000000       0.00000000       0.15748031 </v>
    </varray>
   </crystal>
   <varray name="positions" >
    <v>       0.50000000       0.50000000       0.50000000 </v>
    <v>       0.40098670       0.40098670       0.40098670 </v>
    <v>       0.59901330       0.59901330       0.40098670 </v>
    <v>       0.40098670       0.59901330       0.59901330 </v>
   </varray>
  </structure>
  <varray name="forces" >
   <v>      -1.05928800       1.05930340      -1.05927802 </v>
   <v>       0.06830603      -0.92268887       0.06830400 </v>
   <v>       0.92267769      -0.06830765       0.06830371 </v>
   <v>       0.06830428      -0.06830688       0.92267031 </v>
  </varray>
  <varray name="stress" >
   <v>      -7.87854320       3.09464568      -3.09456032 </v>
   <v>       3.09464569      -7.87854342       3.09461195 </v>
   <v>      -3.09456032       3.09461195      -7.87854060 </v>
  </varray>
  <energy>
   <i name="e_fr_energy">    -17.05387748 </i>
   <i name="e_wo_entrp">    -17.03977411 </i>
   <i name="e_0_energy">     -0.02820674 </i>
  </energy>
  <time name="totalsc">   98.84    7.64</time>
  <eigenvalues>
   <array>
    <dimension dim="1">band</dimension>
    <dimension dim="2">kpoint</dimension>
    <dimension dim="3">spin</dimension>
    <field>eigene</field>
    <field>occ</field>
    <set>
     <set comment="spin 1">
      <set comment="kpoint 1">
       <r>  -16.3549    1.0000 </r>
       <r>   -9.2900    1.0000 </r>
       <r>   -9.2900    1.0000 </r>
       <r>   -4.6820    0.5056 </r>
       <r>   -0.7970    0.0000 </r>
       <r>    2.4237    0.0000 </r>
       <r>    2.4237    0.0000 </r>
       <r>    2.8051    0.0000 </r>
       <r>    2.8051    0.0000 </r>
      </set>
     </set>
     <set comment="spin 2">
      <set comment="kpoint 1">
       <r>  -16.3547    1.0000 </r>
       <r>   -9.2900    1.0000 </r>
       <r>   -9.2900    1.0000 </r>
       <r>   -4.6810    0.4944 </r>
       <r>   -0.7966    0.0000 </r>
       <r>    2.4247    0.0000 </r>
       <r>    2.4247    0.0000 </r>
       <r>    2.8051    0.0000 </r>
       <r>    2.8051    0.0000 </r>
      </set>
     </set>
    </set>
   </array>
  </eigenvalues>
  <separator name="orbital magnetization" >
   <v name="MAGDIPOLOUT">      0.00000000      0.00000000      0.00000000</v>
  </separator>
  <dos>
   <i name="efermi">     -4.68151231 </i>
   <total>
    <array>
     <dimension dim="1">gridpoints</dimension>
     <dimension dim="2">spin</dimension>
     <field>energy</field>
     <field>total</field>
     <field>integrated</field>
     <set>
      <set comment="spin 1">
       <r>   -17.3129     0.0000     0.0000 </r>
       <r>   -17.2427     0.0000     0.0000 </r>
       <r>   -17.1724     0.0000     0.0000 </r>
       <r>   -17.1022     0.0000     0.0000 </r>
       <r>   -17.0319     0.0000     0.0000 </r>
       <r>   -16.9617     0.0000     0.0000 </r>
       <r>   -16.8914     0.0000     0.0000 </r>
       <r>   -16.8212     0.0000     0.0000 </r>
       <r>   -16.7509     0.0000     0.0000 </r>
       <r>   -16.6807     0.0000     0.0000 </r>
       <r>   -16.6104     0.0000     0.0000 </r>
       <r>   -16.5401     0.0000     0.0000 </r>
       <r>   -16.4699     0.0082     0.0006 </r>
       <r>   -16.3996     1.4583     0.1030 </r>
       <r>   -16.3294     9.4231     0.7650 </r>
       <r>   -16.2591     3.2967     0.9966 </r>
       <r>   -16.1889     0.0479     1.0000 </r>
       <r>   -16.1186     0.0000     1.0000 </r>
       <r>   -16.0484     0.0000     1.0000 </r>
       <r>   -15.9781     0.0000     1.0000 </r>
       <r>   -15.9079     0.0000     1.0000 </r>
       <r>   -15.8376     0.0000     1.0000 </r>
       <r>   -15.7674     0.0000     1.0000 </r>
       <r>   -15.6971     0.0000     1.0000 </r>
       <r>   -15.6269     0.0000     1.0000 </r>
       <r>   -15.5566     0.0000     1.0000 </r>
       <r>   -15.4863     0.0000     1.0000 </r>
       <r>   -15.4161     0.0000     1.0000 </r>
       <r>   -15.3458     0.0000     1.0000 </r>
       <r>   -15.2756     0.0000     1.0000 </r>
       <r>   -15.2053     0.0000     1.0000 </r>
       <r>   -15.1351     0.0000     1.0000 </r>
       <r>   -15.0648     0.0000     1.0000 </r>
       <r>   -14.9946     0.0000     1.0000 </r>
       <r>   -14.9243     0.0000     1.0000 </r>
       <r>   -14.8541     0.0000     1.0000 </r>
       <r>   -14.7838     0.0000     1.0000 </r>
       <r>   -14.7136     0.0000     1.0000 </r>
       <r>   -14.6433     0.0000     1.0000 </r>
       <r>   -14.5730     0.0000     1.0000 </r>
       <r>   -14.5028     0.0000     1.0000 </r>
       <r>   -14.4325     0.0000     1.0000 </r>
       <r>   -14.3623     0.0000     1.0000 </r>
       <r>   -14.2920     0.0000     1.0000 </r>
       <r>   -14.2218     0.0000     1.0000 </r>
       <r>   -14.1515     0.0000     1.0000 </r>
       <r>   -14.0813     0.0000     1.0000 </r>
       <r>   -14.0110     0.0000     1.0000 </r>
       <r>   -13.9408     0.0000     1.0000 </r>
       <r>   -13.8705     0.0000     1.0000 </r>
       <r>   -13.8003     0.0000     1.0000 </r>
       <r>   -13.7300     0.0000     1.0000 </r>
       <r>   -13.6598     0.0000     1.0000 </r>
       <r>   -13.5895     0.0000     1.0000 </r>
       <r>   -13.5192     0.0000     1.0000 </r>
       <r>   -13.4490     0.0000     1.0000 </r>
       <r>   -13.3787     0.0000     1.0000 </r>
       <r>   -13.3085     0.0000     1.0000 </r>
       <r>   -13.2382     0.0000     1.0000 </r>
       <r>   -13.1680     0.0000     1.0000 </r>
       <r>   -13.0977     0.0000     1.0000 </r>
       <r>   -13.0275     0.0000     1.0000 </r>
       <r>   -12.9572     0.0000     1.0000 </r>
       <r>   -12.8870     0.0000     1.0000 </r>
       <r>   -12.8167     0.0000     1.0000 </r>
       <r>   -12.7465     0.0000     1.0000 </r>
       <r>   -12.6762     0.0000     1.0000 </r>
       <r>   -12.6060     0.0000     1.0000 </r>
       <r>   -12.5357     0.0000     1.0000 </r>
       <r>   -12.4654     0.0000     1.0000 </r>
       <r>   -12.3952     0.0000     1.0000 </r>
       <r>   -12.3249     0.0000     1.0000 </r>
       <r>   -12.2547     0.0000     1.0000 </r>
       <r>   -12.1844     0.0000     1.0000 </r>
       <r>   -12.1142     0.0000     1.0000 </r>
       <r>   -12.0439     0.0000     1.0000 </r>
       <r>   -11.9737     0.0000     1.0000 </r>
       <r>   -11.9034     0.0000     1.0000 </r>
       <r>   -11.8332     0.0000     1.0000 </r>
       <r>   -11.7629     0.0000     1.0000 </r>
       <r>   -11.6927     0.0000     1.0000 </r>
       <r>   -11.6224     0.0000     1.0000 </r>
       <r>   -11.5521     0.0000     1.0000 </r>
       <r>   -11.4819     0.0000     1.0000 </r>
       <r>   -11.4116     0.0000     1.0000 </r>
       <r>   -11.3414     0.0000     1.0000 </r>
       <r>   -11.2711     0.0000     1.0000 </r>
       <r>   -11.2009     0.0000     1.0000 </r>
       <r>   -11.1306     0.0000     1.0000 </r>
       <r>   -11.0604     0.0000     1.0000 </r>
       <r>   -10.9901     0.0000     1.0000 </r>
       <r>   -10.9199     0.0000     1.0000 </r>
       <r>   -10.8496     0.0000     1.0000 </r>
       <r>   -10.7794     0.0000     1.0000 </r>
       <r>   -10.7091     0.0000     1.0000 </r>
       <r>   -10.6389     0.0000     1.0000 </r>
       <r>   -10.5686     0.0000     1.0000 </r>
       <r>   -10.4983     0.0000     1.0000 </r>
       <r>   -10.4281     0.0000     1.0000 </r>
       <r>   -10.3578     0.0000     1.0000 </r>
       <r>   -10.2876     0.0000     1.0000 </r>
       <r>   -10.2173     0.0000     1.0000 </r>
       <r>   -10.1471     0.0000     1.0000 </r>
       <r>   -10.0768     0.0000     1.0000 </r>
       <r>   -10.0066     0.0000     1.0000 </r>
       <r>    -9.9363     0.0000     1.0000 </r>
       <r>    -9.8661     0.0000     1.0000 </r>
       <r>    -9.7958     0.0000     1.0000 </r>
       <r>    -9.7256     0.0000     1.0000 </r>
       <r>    -9.6553     0.0000     1.0000 </r>
       <r>    -9.5850     0.0000     1.0000 </r>
       <r>    -9.5148     0.0000     1.0000 </r>
       <r>    -9.4445     0.0002     1.0000 </r>
       <r>    -9.3743     0.2442     1.0172 </r>
       <r>    -9.3040     9.6074     1.6921 </r>
       <r>    -9.2338    17.0281     2.8884 </r>
       <r>    -9.1635     1.5834     2.9997 </r>
       <r>    -9.0933     0.0049     3.0000 </r>
       <r>    -9.0230     0.0000     3.0000 </r>
       <r>    -8.9528     0.0000     3.0000 </r>
       <r>    -8.8825     0.0000     3.0000 </r>
       <r>    -8.8123     0.0000     3.0000 </r>
       <r>    -8.7420     0.0000     3.0000 </r>
       <r>    -8.6718     0.0000     3.0000 </r>
       <r>    -8.6015     0.0000     3.0000 </r>
       <r>    -8.5312     0.0000     3.0000 </r>
       <r>    -8.4610     0.0000     3.0000 </r>
       <r>    -8.3907     0.0000     3.0000 </r>
       <r>    -8.3205     0.0000     3.0000 </r>
       <r>    -8.2502     0.0000     3.0000 </r>
       <r>    -8.1800     0.0000     3.0000 </r>
       <r>    -8.1097     0.0000     3.0000 </r>
       <r>    -8.0395     0.0000     3.0000 </r>
       <r>    -7.9692     0.0000     3.0000 </r>
       <r>    -7.8990     0.0000     3.0000 </r>
       <r>    -7.8287     0.0000     3.0000 </r>
       <r>    -7.7585     0.0000     3.0000 </r>
       <r>    -7.6882     0.0000     3.0000 </r>
       <r>    -7.6179     0.0000     3.0000 </r>
       <r>    -7.5477     0.0000     3.0000 </r>
       <r>    -7.4774     0.0000     3.0000 </r>
       <r>    -7.4072     0.0000     3.0000 </r>
       <r>    -7.3369     0.0000     3.0000 </r>
       <r>    -7.2667     0.0000     3.0000 </r>
       <r>    -7.1964     0.0000     3.0000 </r>
       <r>    -7.1262     0.0000     3.0000 </r>
       <r>    -7.0559     0.0000     3.0000 </r>
       <r>    -6.9857     0.0000     3.0000 </r>
       <r>    -6.9154     0.0000     3.0000 </r>
       <r>    -6.8452     0.0000     3.0000 </r>
       <r>    -6.7749     0.0000     3.0000 </r>
       <r>    -6.7047     0.0000     3.0000 </r>
       <r>    -6.6344     0.0000     3.0000 </r>
       <r>    -6.5641     0.0000     3.0000 </r>
       <r>    -6.4939     0.0000     3.0000 </r>
       <r>    -6.4236     0.0000     3.0000 </r>
       <r>    -6.3534     0.0000     3.0000 </r>
       <r>    -6.2831     0.0000     3.0000 </r>
       <r>    -6.2129     0.0000     3.0000 </r>
       <r>    -6.1426     0.0000     3.0000 </r>
       <r>    -6.0724     0.0000     3.0000 </r>
       <r>    -6.0021     0.0000     3.0000 </r>
       <r>    -5.9319     0.0000     3.0000 </r>
       <r>    -5.8616     0.0000     3.0000 </r>
       <r>    -5.7914     0.0000     3.0000 </r>
       <r>    -5.7211     0.0000     3.0000 </r>
       <r>    -5.6509     0.0000     3.0000 </r>
       <r>    -5.5806     0.0000     3.0000 </r>
       <r>    -5.5103     0.0000     3.0000 </r>
       <r>    -5.4401     0.0000     3.0000 </r>
       <r>    -5.3698     0.0000     3.0000 </r>
       <r>    -5.2996     0.0000     3.0000 </r>
       <r>    -5.2293     0.0000     3.0000 </r>
       <r>    -5.1591     0.0000     3.0000 </r>
       <r>    -5.0888     0.0000     3.0000 </r>
       <r>    -5.0186     0.0000     3.0000 </r>
       <r>    -4.9483     0.0000     3.0000 </r>
       <r>    -4.8781     0.0000     3.0000 </r>
       <r>    -4.8078     0.0027     3.0002 </r>
       <r>    -4.7376     0.8239     3.0581 </r>
       <r>    -4.6673     8.5858     3.6613 </r>
       <r>    -4.5970     4.7060     3.9919 </r>
       <r>    -4.5268     0.1157     4.0000 </r>
       <r>    -4.4565     0.0001     4.0000 </r>
       <r>    -4.3863     0.0000     4.0000 </r>
       <r>    -4.3160     0.0000     4.0000 </r>
       <r>    -4.2458     0.0000     4.0000 </r>
       <r>    -4.1755     0.0000     4.0000 </r>
       <r>    -4.1053     0.0000     4.0000 </r>
       <r>    -4.0350     0.0000     4.0000 </r>
       <r>    -3.9648     0.0000     4.0000 </r>
       <r>    -3.8945     0.0000     4.0000 </r>
       <r>    -3.8243     0.0000     4.0000 </r>
       <r>    -3.7540     0.0000     4.0000 </r>
       <r>    -3.6838     0.0000     4.0000 </r>
       <r>    -3.6135     0.0000     4.0000 </r>
       <r>    -3.5432     0.0000     4.0000 </r>
       <r>    -3.4730     0.0000     4.0000 </r>
       <r>    -3.4027     0.0000     4.0000 </r>
       <r>    -3.3325     0.0000     4.0000 </r>
       <r>    -3.2622     0.0000     4.0000 </r>
       <r>    -3.1920     0.0000     4.0000 </r>
       <r>    -3.1217     0.0000     4.0000 </r>
       <r>    -3.0515     0.0000     4.0000 </r>
       <r>    -2.9812     0.0000     4.0000 </r>
       <r>    -2.9110     0.0000     4.0000 </r>
       <r>    -2.8407     0.0000     4.0000 </r>
       <r>    -2.7705     0.0000     4.0000 </r>
       <r>    -2.7002     0.0000     4.0000 </r>
       <r>    -2.6299     0.0000     4.0000 </r>
       <r>    -2.5597     0.0000     4.0000 </r>
       <r>    -2.4894     0.0000     4.0000 </r>
       <r>    -2.4192     0.0000     4.0000 </r>
       <r>    -2.3489     0.0000     4.0000 </r>
       <r>    -2.2787     0.0000     4.0000 </r>
       <r>    -2.2084     0.0000     4.0000 </r>
       <r>    -2.1382     0.0000     4.0000 </r>
       <r>    -2.0679     0.0000     4.0000 </r>
       <r>    -1.9977     0.0000     4.0000 </r>
       <r>    -1.9274     0.0000     4.0000 </r>
       <r>    -1.8572     0.0000     4.0000 </r>
       <r>    -1.7869     0.0000     4.0000 </r>
       <r>    -1.7167     0.0000     4.0000 </r>
       <r>    -1.6464     0.0000     4.0000 </r>
       <r>    -1.5761     0.0000     4.0000 </r>
       <r>    -1.5059     0.0000     4.0000 </r>
       <r>    -1.4356     0.0000     4.0000 </r>
       <r>    -1.3654     0.0000     4.0000 </r>
       <r>    -1.2951     0.0000     4.0000 </r>
       <r>    -1.2249     0.0000     4.0000 </r>
       <r>    -1.1546     0.0000     4.0000 </r>
       <r>    -1.0844     0.0000     4.0000 </r>
       <r>    -1.0141     0.0000     4.0000 </r>
       <r>    -0.9439     0.0002     4.0000 </r>
       <r>    -0.8736     0.2154     4.0152 </r>
       <r>    -0.8034     5.8900     4.4289 </r>
       <r>    -0.7331     7.6260     4.9647 </r>
       <r>    -0.6629     0.5015     4.9999 </r>
       <r>    -0.5926     0.0011     5.0000 </r>
       <r>    -0.5223     0.0000     5.0000 </r>
       <r>    -0.4521     0.0000     5.0000 </r>
       <r>    -0.3818     0.0000     5.0000 </r>
       <r>    -0.3116     0.0000     5.0000 </r>
       <r>    -0.2413     0.0000     5.0000 </r>
       <r>    -0.1711     0.0000     5.0000 </r>
       <r>    -0.1008     0.0000     5.0000 </r>
       <r>    -0.0306     0.0000     5.0000 </r>
       <r>     0.0397     0.0000     5.0000 </r>
       <r>     0.1099     0.0000     5.0000 </r>
       <r>     0.1802     0.0000     5.0000 </r>
       <r>     0.2504     0.0000     5.0000 </r>
       <r>     0.3207     0.0000     5.0000 </r>
       <r>     0.3910     0.0000     5.0000 </r>
       <r>     0.4612     0.0000     5.0000 </r>
       <r>     0.5315     0.0000     5.0000 </r>
       <r>     0.6017     0.0000     5.0000 </r>
       <r>     0.6720     0.0000     5.0000 </r>
       <r>     0.7422     0.0000     5.0000 </r>
       <r>     0.8125     0.0000     5.0000 </r>
       <r>     0.8827     0.0000     5.0000 </r>
       <r>     0.9530     0.0000     5.0000 </r>
       <r>     1.0232     0.0000     5.0000 </r>
       <r>     1.0935     0.0000     5.0000 </r>
       <r>     1.1637     0.0000     5.0000 </r>
       <r>     1.2340     0.0000     5.0000 </r>
       <r>     1.3042     0.0000     5.0000 </r>
       <r>     1.3745     0.0000     5.0000 </r>
       <r>     1.4448     0.0000     5.0000 </r>
       <r>     1.5150     0.0000     5.0000 </r>
       <r>     1.5853     0.0000     5.0000 </r>
       <r>     1.6555     0.0000     5.0000 </r>
       <r>     1.7258     0.0000     5.0000 </r>
       <r>     1.7960     0.0000     5.0000 </r>
       <r>     1.8663     0.0000     5.0000 </r>
       <r>     1.9365     0.0000     5.0000 </r>
       <r>     2.0068     0.0000     5.0000 </r>
       <r>     2.0770     0.0000     5.0000 </r>
       <r>     2.1473     0.0000     5.0000 </r>
       <r>     2.2175     0.0000     5.0000 </r>
       <r>     2.2878     0.0017     5.0001 </r>
       <r>     2.3581     0.9009     5.0634 </r>
       <r>     2.4283    14.8128     6.1041 </r>
       <r>     2.4986    12.2662     6.9658 </r>
       <r>     2.5688     0.4860     7.0000 </r>
       <r>     2.6391     0.0006     7.0000 </r>
       <r>     2.7093     0.0959     7.0067 </r>
       <r>     2.7796     6.5942     7.4700 </r>
       <r>     2.8498    18.8458     8.7940 </r>
       <r>     2.9201     2.9161     8.9989 </r>
       <r>     2.9903     0.0163     9.0000 </r>
       <r>     3.0606     0.0000     9.0000 </r>
       <r>     3.1308     0.0000     9.0000 </r>
       <r>     3.2011     0.0000     9.0000 </r>
       <r>     3.2713     0.0000     9.0000 </r>
       <r>     3.3416     0.0000     9.0000 </r>
       <r>     3.4119     0.0000     9.0000 </r>
       <r>     3.4821     0.0000     9.0000 </r>
       <r>     3.5524     0.0000     9.0000 </r>
       <r>     3.6226     0.0000     9.0000 </r>
       <r>     3.6929     0.0000     9.0000 </r>
       <r>     3.7631     0.0000     9.0000 </r>
      </set>
      <set comment="spin 2">
       <r>   -17.3129     0.0000     0.0000 </r>
       <r>   -17.2427     0.0000     0.0000 </r>
       <r>   -17.1724     0.0000     0.0000 </r>
       <r>   -17.1022     0.0000     0.0000 </r>
       <r>   -17.0319     0.0000     0.0000 </r>
       <r>   -16.9617     0.0000     0.0000 </r>
       <r>   -16.8914     0.0000     0.0000 </r>
       <r>   -16.8212     0.0000     0.0000 </r>
       <r>   -16.7509     0.0000     0.0000 </r>
       <r>   -16.6807     0.0000     0.0000 </r>
       <r>   -16.6104     0.0000     0.0000 </r>
       <r>   -16.5401     0.0000     0.0000 </r>
       <r>   -16.4699     0.0080     0.0006 </r>
       <r>   -16.3996     1.4420     0.1019 </r>
       <r>   -16.3294     9.4111     0.7630 </r>
       <r>   -16.2591     3.3242     0.9966 </r>
       <r>   -16.1889     0.0489     1.0000 </r>
       <r>   -16.1186     0.0000     1.0000 </r>
       <r>   -16.0484     0.0000     1.0000 </r>
       <r>   -15.9781     0.0000     1.0000 </r>
       <r>   -15.9079     0.0000     1.0000 </r>
       <r>   -15.8376     0.0000     1.0000 </r>
       <r>   -15.7674     0.0000     1.0000 </r>
       <r>   -15.6971     0.0000     1.0000 </r>
       <r>   -15.6269     0.0000     1.0000 </r>
       <r>   -15.5566     0.0000     1.0000 </r>
       <r>   -15.4863     0.0000     1.0000 </r>
       <r>   -15.4161     0.0000     1.0000 </r>
       <r>   -15.3458     0.0000     1.0000 </r>
       <r>   -15.2756     0.0000     1.0000 </r>
       <r>   -15.2053     0.0000     1.0000 </r>
       <r>   -15.1351     0.0000     1.0000 </r>
       <r>   -15.0648     0.0000     1.0000 </r>
       <r>   -14.9946     0.0000     1.0000 </r>
       <r>   -14.9243     0.0000     1.0000 </r>
       <r>   -14.8541     0.0000     1.0000 </r>
       <r>   -14.7838     0.0000     1.0000 </r>
       <r>   -14.7136     0.0000     1.0000 </r>
       <r>   -14.6433     0.0000     1.0000 </r>
       <r>   -14.5730     0.0000     1.0000 </r>
       <r>   -14.5028     0.0000     1.0000 </r>
       <r>   -14.4325     0.0000     1.0000 </r>
       <r>   -14.3623     0.0000     1.0000 </r>
       <r>   -14.2920     0.0000     1.0000 </r>
       <r>   -14.2218     0.0000     1.0000 </r>
       <r>   -14.1515     0.0000     1.0000 </r>
       <r>   -14.0813     0.0000     1.0000 </r>
       <r>   -14.0110     0.0000     1.0000 </r>
       <r>   -13.9408     0.0000     1.0000 </r>
       <r>   -13.8705     0.0000     1.0000 </r>
       <r>   -13.8003     0.0000     1.0000 </r>
       <r>   -13.7300     0.0000     1.0000 </r>
       <r>   -13.6598     0.0000     1.0000 </r>
       <r>   -13.5895     0.0000     1.0000 </r>
       <r>   -13.5192     0.0000     1.0000 </r>
       <r>   -13.4490     0.0000     1.0000 </r>
       <r>   -13.3787     0.0000     1.0000 </r>
       <r>   -13.3085     0.0000     1.0000 </r>
       <r>   -13.2382     0.0000     1.0000 </r>
       <r>   -13.1680     0.0000     1.0000 </r>
       <r>   -13.0977     0.0000     1.0000 </r>
       <r>   -13.0275     0.0000     1.0000 </r>
       <r>   -12.9572     0.0000     1.0000 </r>
       <r>   -12.8870     0.0000     1.0000 </r>
       <r>   -12.8167     0.0000     1.0000 </r>
       <r>   -12.7465     0.0000     1.0000 </r>
       <r>   -12.6762     0.0000     1.0000 </r>
       <r>   -12.6060     0.0000     1.0000 </r>
       <r>   -12.5357     0.0000     1.0000 </r>
       <r>   -12.4654     0.0000     1.0000 </r>
       <r>   -12.3952     0.0000     1.0000 </r>
       <r>   -12.3249     0.0000     1.0000 </r>
       <r>   -12.2547     0.0000     1.0000 </r>
       <r>   -12.1844     0.0000     1.0000 </r>
       <r>   -12.1142     0.0000     1.0000 </r>
       <r>   -12.0439     0.0000     1.0000 </r>
       <r>   -11.9737     0.0000     1.0000 </r>
       <r>   -11.9034     0.0000     1.0000 </r>
       <r>   -11.8332     0.0000     1.0000 </r>
       <r>   -11.7629     0.0000     1.0000 </r>
       <r>   -11.6927     0.0000     1.0000 </r>
       <r>   -11.6224     0.0000     1.0000 </r>
       <r>   -11.5521     0.0000     1.0000 </r>
       <r>   -11.4819     0.0000     1.0000 </r>
       <r>   -11.4116     0.0000     1.0000 </r>
       <r>   -11.3414     0.0000     1.0000 </r>
       <r>   -11.2711     0.0000     1.0000 </r>
       <r>   -11.2009     0.0000     1.0000 </r>
       <r>   -11.1306     0.0000     1.0000 </r>
       <r>   -11.0604     0.0000     1.0000 </r>
       <r>   -10.9901     0.0000     1.0000 </r>
       <r>   -10.9199     0.0000     1.0000 </r>
       <r>   -10.8496     0.0000     1.0000 </r>
       <r>   -10.7794     0.0000     1.0000 </r>
       <r>   -10.7091     0.0000     1.0000 </r>
       <r>   -10.6389     0.0000     1.0000 </r>
       <r>   -10.5686     0.0000     1.0000 </r>
       <r>   -10.4983     0.0000     1.0000 </r>
       <r>   -10.4281     0.0000     1.0000 </r>
       <r>   -10.3578     0.0000     1.0000 </r>
       <r>   -10.2876     0.0000     1.0000 </r>
       <r>   -10.2173     0.0000     1.0000 </r>
       <r>   -10.1471     0.0000     1.0000 </r>
       <r>   -10.0768     0.0000     1.0000 </r>
       <r>   -10.0066     0.0000     1.0000 </r>
       <r>    -9.9363     0.0000     1.0000 </r>
       <r>    -9.8661     0.0000     1.0000 </r>
       <r>    -9.7958     0.0000     1.0000 </r>
       <r>    -9.7256     0.0000     1.0000 </r>
       <r>    -9.6553     0.0000     1.0000 </r>
       <r>    -9.5850     0.0000     1.0000 </r>
       <r>    -9.5148     0.0000     1.0000 </r>
       <r>    -9.4445     0.0002     1.0000 </r>
       <r>    -9.3743     0.2437     1.0171 </r>
       <r>    -9.3040     9.5997     1.6915 </r>
       <r>    -9.2338    17.0338     2.8882 </r>
       <r>    -9.1635     1.5859     2.9997 </r>
       <r>    -9.0933     0.0049     3.0000 </r>
       <r>    -9.0230     0.0000     3.0000 </r>
       <r>    -8.9528     0.0000     3.0000 </r>
       <r>    -8.8825     0.0000     3.0000 </r>
       <r>    -8.8123     0.0000     3.0000 </r>
       <r>    -8.7420     0.0000     3.0000 </r>
       <r>    -8.6718     0.0000     3.0000 </r>
       <r>    -8.6015     0.0000     3.0000 </r>
       <r>    -8.5312     0.0000     3.0000 </r>
       <r>    -8.4610     0.0000     3.0000 </r>
       <r>    -8.3907     0.0000     3.0000 </r>
       <r>    -8.3205     0.0000     3.0000 </r>
       <r>    -8.2502     0.0000     3.0000 </r>
       <r>    -8.1800     0.0000     3.0000 </r>
       <r>    -8.1097     0.0000     3.0000 </r>
       <r>    -8.0395     0.0000     3.0000 </r>
       <r>    -7.9692     0.0000     3.0000 </r>
       <r>    -7.8990     0.0000     3.0000 </r>
       <r>    -7.8287     0.0000     3.0000 </r>
       <r>    -7.7585     0.0000     3.0000 </r>
       <r>    -7.6882     0.0000     3.0000 </r>
       <r>    -7.6179     0.0000     3.0000 </r>
       <r>    -7.5477     0.0000     3.0000 </r>
       <r>    -7.4774     0.0000     3.0000 </r>
       <r>    -7.4072     0.0000     3.0000 </r>
       <r>    -7.3369     0.0000     3.0000 </r>
       <r>    -7.2667     0.0000     3.0000 </r>
       <r>    -7.1964     0.0000     3.0000 </r>
       <r>    -7.1262     0.0000     3.0000 </r>
       <r>    -7.0559     0.0000     3.0000 </r>
       <r>    -6.9857     0.0000     3.0000 </r>
       <r>    -6.9154     0.0000     3.0000 </r>
       <r>    -6.8452     0.0000     3.0000 </r>
       <r>    -6.7749     0.0000     3.0000 </r>
       <r>    -6.7047     0.0000     3.0000 </r>
       <r>    -6.6344     0.0000     3.0000 </r>
       <r>    -6.5641     0.0000     3.0000 </r>
       <r>    -6.4939     0.0000     3.0000 </r>
       <r>    -6.4236     0.0000     3.0000 </r>
       <r>    -6.3534     0.0000     3.0000 </r>
       <r>    -6.2831     0.0000     3.0000 </r>
       <r>    -6.2129     0.0000     3.0000 </r>
       <r>    -6.1426     0.0000     3.0000 </r>
       <r>    -6.0724     0.0000     3.0000 </r>
       <r>    -6.0021     0.0000     3.0000 </r>
       <r>    -5.9319     0.0000     3.0000 </r>
       <r>    -5.8616     0.0000     3.0000 </r>
       <r>    -5.7914     0.0000     3.0000 </r>
       <r>    -5.7211     0.0000     3.0000 </r>
       <r>    -5.6509     0.0000     3.0000 </r>
       <r>    -5.5806     0.0000     3.0000 </r>
       <r>    -5.5103     0.0000     3.0000 </r>
       <r>    -5.4401     0.0000     3.0000 </r>
       <r>    -5.3698     0.0000     3.0000 </r>
       <r>    -5.2996     0.0000     3.0000 </r>
       <r>    -5.2293     0.0000     3.0000 </r>
       <r>    -5.1591     0.0000     3.0000 </r>
       <r>    -5.0888     0.0000     3.0000 </r>
       <r>    -5.0186     0.0000     3.0000 </r>
       <r>    -4.9483     0.0000     3.0000 </r>
       <r>    -4.8781     0.0000     3.0000 </r>
       <r>    -4.8078     0.0024     3.0002 </r>
       <r>    -4.7376     0.7791     3.0549 </r>
       <r>    -4.6673     8.4849     3.6510 </r>
       <r>    -4.5970     4.8429     3.9912 </r>
       <r>    -4.5268     0.1248     4.0000 </r>
       <r>    -4.4565     0.0001     4.0000 </r>
       <r>    -4.3863     0.0000     4.0000 </r>
       <r>    -4.3160     0.0000     4.0000 </r>
       <r>    -4.2458     0.0000     4.0000 </r>
       <r>    -4.1755     0.0000     4.0000 </r>
       <r>    -4.1053     0.0000     4.0000 </r>
       <r>    -4.0350     0.0000     4.0000 </r>
       <r>    -3.9648     0.0000     4.0000 </r>
       <r>    -3.8945     0.0000     4.0000 </r>
       <r>    -3.8243     0.0000     4.0000 </r>
       <r>    -3.7540     0.0000     4.0000 </r>
       <r>    -3.6838     0.0000     4.0000 </r>
       <r>    -3.6135     0.0000     4.0000 </r>
       <r>    -3.5432     0.0000     4.0000 </r>
       <r>    -3.4730     0.0000     4.0000 </r>
       <r>    -3.4027     0.0000     4.0000 </r>
       <r>    -3.3325     0.0000     4.0000 </r>
       <r>    -3.2622     0.0000     4.0000 </r>
       <r>    -3.1920     0.0000     4.0000 </r>
       <r>    -3.1217     0.0000     4.0000 </r>
       <r>    -3.0515     0.0000     4.0000 </r>
       <r>    -2.9812     0.0000     4.0000 </r>
       <r>    -2.9110     0.0000     4.0000 </r>
       <r>    -2.8407     0.0000     4.0000 </r>
       <r>    -2.7705     0.0000     4.0000 </r>
       <r>    -2.7002     0.0000     4.0000 </r>
       <r>    -2.6299     0.0000     4.0000 </r>
       <r>    -2.5597     0.0000     4.0000 </r>
       <r>    -2.4894     0.0000     4.0000 </r>
       <r>    -2.4192     0.0000     4.0000 </r>
       <r>    -2.3489     0.0000     4.0000 </r>
       <r>    -2.2787     0.0000     4.0000 </r>
       <r>    -2.2084     0.0000     4.0000 </r>
       <r>    -2.1382     0.0000     4.0000 </r>
       <r>    -2.0679     0.0000     4.0000 </r>
       <r>    -1.9977     0.0000     4.0000 </r>
       <r>    -1.9274     0.0000     4.0000 </r>
       <r>    -1.8572     0.0000     4.0000 </r>
       <r>    -1.7869     0.0000     4.0000 </r>
       <r>    -1.7167     0.0000     4.0000 </r>
       <r>    -1.6464     0.0000     4.0000 </r>
       <r>    -1.5761     0.0000     4.0000 </r>
       <r>    -1.5059     0.0000     4.0000 </r>
       <r>    -1.4356     0.0000     4.0000 </r>
       <r>    -1.3654     0.0000     4.0000 </r>
       <r>    -1.2951     0.0000     4.0000 </r>
       <r>    -1.2249     0.0000     4.0000 </r>
       <r>    -1.1546     0.0000     4.0000 </r>
       <r>    -1.0844     0.0000     4.0000 </r>
       <r>    -1.0141     0.0000     4.0000 </r>
       <r>    -0.9439     0.0002     4.0000 </r>
       <r>    -0.8736     0.2088     4.0147 </r>
       <r>    -0.8034     5.8279     4.4241 </r>
       <r>    -0.7331     7.6809     4.9637 </r>
       <r>    -0.6629     0.5152     4.9999 </r>
       <r>    -0.5926     0.0011     5.0000 </r>
       <r>    -0.5223     0.0000     5.0000 </r>
       <r>    -0.4521     0.0000     5.0000 </r>
       <r>    -0.3818     0.0000     5.0000 </r>
       <r>    -0.3116     0.0000     5.0000 </r>
       <r>    -0.2413     0.0000     5.0000 </r>
       <r>    -0.1711     0.0000     5.0000 </r>
       <r>    -0.1008     0.0000     5.0000 </r>
       <r>    -0.0306     0.0000     5.0000 </r>
       <r>     0.0397     0.0000     5.0000 </r>
       <r>     0.1099     0.0000     5.0000 </r>
       <r>     0.1802     0.0000     5.0000 </r>
       <r>     0.2504     0.0000     5.0000 </r>
       <r>     0.3207     0.0000     5.0000 </r>
       <r>     0.3910     0.0000     5.0000 </r>
       <r>     0.4612     0.0000     5.0000 </r>
       <r>     0.5315     0.0000     5.0000 </r>
       <r>     0.6017     0.0000     5.0000 </r>
       <r>     0.6720     0.0000     5.0000 </r>
       <r>     0.7422     0.0000     5.0000 </r>
       <r>     0.8125     0.0000     5.0000 </r>
       <r>     0.8827     0.0000     5.0000 </r>
       <r>     0.9530     0.0000     5.0000 </r>
       <r>     1.0232     0.0000     5.0000 </r>
       <r>     1.0935     0.0000     5.0000 </r>
       <r>     1.1637     0.0000     5.0000 </r>
       <r>     1.2340     0.0000     5.0000 </r>
       <r>     1.3042     0.0000     5.0000 </r>
       <r>     1.3745     0.0000     5.0000 </r>
       <r>     1.4448     0.0000     5.0000 </r>
       <r>     1.5150     0.0000     5.0000 </r>
       <r>     1.5853     0.0000     5.0000 </r>
       <r>     1.6555     0.0000     5.0000 </r>
       <r>     1.7258     0.0000     5.0000 </r>
       <r>     1.7960     0.0000     5.0000 </r>
       <r>     1.8663     0.0000     5.0000 </r>
       <r>     1.9365     0.0000     5.0000 </r>
       <r>     2.0068     0.0000     5.0000 </r>
       <r>     2.0770     0.0000     5.0000 </r>
       <r>     2.1473     0.0000     5.0000 </r>
       <r>     2.2175     0.0000     5.0000 </r>
       <r>     2.2878     0.0015     5.0001 </r>
       <r>     2.3581     0.8432     5.0593 </r>
       <r>     2.4283    14.5396     6.0808 </r>
       <r>     2.4986    12.5609     6.9632 </r>
       <r>     2.5688     0.5225     7.0000 </r>
       <r>     2.6391     0.0007     7.0000 </r>
       <r>     2.7093     0.0962     7.0068 </r>
       <r>     2.7796     6.6043     7.4707 </r>
       <r>     2.8498    18.8414     8.7944 </r>
       <r>     2.9201     2.9101     8.9989 </r>
       <r>     2.9903     0.0163     9.0000 </r>
       <r>     3.0606     0.0000     9.0000 </r>
       <r>     3.1308     0.0000     9.0000 </r>
       <r>     3.2011     0.0000     9.0000 </r>
       <r>     3.2713     0.0000     9.0000 </r>
       <r>     3.3416     0.0000     9.0000 </r>
       <r>     3.4119     0.0000     9.0000 </r>
       <r>     3.4821     0.0000     9.0000 </r>
       <r>     3.5524     0.0000     9.0000 </r>
       <r>     3.6226     0.0000     9.0000 </r>
       <r>     3.6929     0.0000     9.0000 </r>
       <r>     3.7631     0.0000     9.0000 </r>
      </set>
     </set>
    </array>
   </total>
   <partial>
    <array>
     <dimension dim="1">gridpoints</dimension>
     <dimension dim="2">spin</dimension>
     <dimension dim="3">ion</dimension>
     <field>energy</field>
     <field>  s</field>
     <field> py</field>
     <field> pz</field>
     <field> px</field>
     <field>dxy</field>
     <field>dyz</field>
     <field>dz2</field>
     <field>dxz</field>
     <field>dx2</field>
     <set>
      <set comment="ion 1">
       <set comment="spin 1">
        <r>   -17.3129     0.0000     0.0000     0.0000     0.0000     0.0000     0.0000     0.0000     0.0000     0.0000 </r>
        <r>   -17.2427     0.0000     0.0000     0.0000     0.0000     0.0000     0.0000     0.0000     0.0000     0.0000 </r>
        <r>   -17.1724     0.0000     0.0000     0.0000     0.0000     0.0000     0.0000     0.0000     0.0000     0.0000 </r>
        <r>   -17.1022     0.0000     0.0000     0.0000     0.0000     0.0000     0.0000     0.0000     0.0000     0.0000 </r>
        <r>   -17.0319     0.0000     0.0000     0.0000     0.0000     0.0000     0.0000     0.0000     0.0000     0.0000 </r>
        <r>   -16.9617     0.0000     0.0000     0.0000     0.0000     0.0000     0.0000     0.0000     0.0000     0.0000 </r>
        <r>   -16.8914     0.0000     0.0000     0.0000     0.0000     0.0000     0.0000     0.0000     0.0000     0.0000 </r>
        <r>   -16.8212     0.0000     0.0000     0.0000     0.0000     0.0000     0.0000     0.0000     0.0000     0.0000 </r>
        <r>   -16.7509     0.0000     0.0000     0.0000     0.0000     0.0000     0.0000     0.0000     0.0000     0.0000 </r>
        <r>   -16.6807     0.0000     0.0000     0.0000     0.0000     0.0000     0.0000     0.0000     0.0000     0.0000 </r>
        <r>   -16.6104     0.0000     0.0000     0.0000     0.0000     0.0000     0.0000     0.0000     0.0000     0.0000 </r>
        <r>   -16.5401     0.0000     0.0000     0.0000     0.0000     0.0000     0.0000     0.0000     0.0000     0.0000 </r>
        <r>   -16.4699     0.0033     0.0000     0.0000     0.0000     0.0000     0.0000     0.0000     0.0000     0.0000 </r>
        <r>   -16.3996     0.5960     0.0063     0.0063     0.0063     0.0000     0.0000     0.0000     0.0000     0.0000 </r>
        <r>   -16.3294     3.8509     0.0406     0.0406     0.0406     0.0000     0.0000     0.0000     0.0000     0.0000 </r>
        <r>   -16.2591     1.3472     0.0142     0.0142     0.0142     0.0000     0.0000     0.0000     0.0000     0.0000 </r>
        <r>   -16.1889     0.0196     0.0002     0.0002     0.0002     0.0000     0.0000     0.0000     0.0000     0.0000 </r>
        <r>   -16.1186     0.0000     0.0000     0.0000     0.0000     0.0000     0.0000     0.0000     0.0000     0.0000 </r>
        <r>   -16.0484     0.0000     0.0000     0.0000     0.0000     0.0000     0.0000     0.0000     0.0000     0.0000 </r>
        <r>   -15.9781     0.0000     0.0000     0.0000     0.0000     0.0000     0.0000     0.0000     0.0000     0.0000 </r>
        <r>   -15.9079     0.0000     0.0000     0.0000     0.0000     0.0000     0.0000     0.0000     0.0000     0.0000 </r>
        <r>   -15.8376     0.0000     0.0000     0.0000     0.0000     0.0000     0.0000     0.0000     0.0000     0.0000 </r>
        <r>   -15.7674     0.0000     0.0000     0.0000     0.0000     0.0000     0.0000     0.0000     0.0000     0.0000 </r>
        <r>   -15.6971     0.0000     0.0000     0.0000     0.0000     0.0000     0.0000     0.0000     0.0000     0.0000 </r>
        <r>   -15.6269     0.0000     0.0000     0.0000     0.0000     0.0000     0.0000     0.0000     0.0000     0.0000 </r>
        <r>   -15.5566     0.0000     0.0000     0.0000     0.0000     0.0000     0.0000     0.0000     0.0000     0.0000 </r>
        <r>   -15.4863     0.0000     0.0000     0.0000     0.0000     0.0000     0.0000     0.0000     0.0000     0.0000 </r>
        <r>   -15.4161     0.0000     0.0000     0.0000     0.0000     0.0000     0.0000     0.0000     0.0000     0.0000 </r>
        <r>   -15.3458     0.0000     0.0000     0.0000     0.0000     0.0000     0.0000     0.0000     0.0000     0.0000 </r>
        <r>   -15.2756     0.0000     0.0000     0.0000     0.0000     0.0000     0.0000     0.0000     0.0000     0.0000 </r>
        <r>   -15.2053     0.0000     0.0000     0.0000     0.0000     0.0000     0.0000     0.0000     0.0000     0.0000 </r>
        <r>   -15.1351     0.0000     0.0000     0.0000     0.0000     0.0000     0.0000     0.0000     0.0000     0.0000 </r>
        <r>   -15.0648     0.0000     0.0000     0.0000     0.0000     0.0000     0.0000     0.0000     0.0000     0.0000 </r>
        <r>   -14.9946     0.0000     0.0000     0.0000     0.0000     0.0000     0.0000     0.0000     0.0000     0.0000 </r>
        <r>   -14.9243     0.0000     0.0000     0.0000     0.0000     0.0000     0.0000     0.0000     0.0000     0.0000 </r>
        <r>   -14.8541     0.0000     0.0000     0.0000     0.0000     0.0000     0.0000     0.0000     0.0000     0.0000 </r>
        <r>   -14.7838     0.0000     0.0000     0.0000     0.0000     0.0000     0.0000     0.0000     0.0000     0.0000 </r>
        <r>   -14.7136     0.0000     0.0000     0.0000     0.0000     0.0000     0.0000     0.0000     0.0000     0.0000 </r>
        <r>   -14.6433     0.0000     0.0000     0.0000     0.0000     0.0000     0.0000     0.0000     0.0000     0.0000 </r>
        <r>   -14.5730     0.0000     0.0000     0.0000     0.0000     0.0000     0.0000     0.0000     0.0000     0.0000 </r>
        <r>   -14.5028     0.0000     0.0000     0.0000     0.0000     0.0000     0.0000     0.0000     0.0000     0.0000 </r>
        <r>   -14.4325     0.0000     0.0000     0.0000     0.0000     0.0000     0.0000     0.0000     0.0000     0.0000 </r>
        <r>   -14.3623     0.0000     0.0000     0.0000     0.0000     0.0000     0.0000     0.0000     0.0000     0.0000 </r>
        <r>   -14.2920     0.0000     0.0000     0.0000     0.0000     0.0000     0.0000     0.0000     0.0000     0.0000 </r>
        <r>   -14.2218     0.0000     0.0000     0.0000     0.0000     0.0000     0.0000     0.0000     0.0000     0.0000 </r>
        <r>   -14.1515     0.0000     0.0000     0.0000     0.0000     0.0000     0.0000     0.0000     0.0000     0.0000 </r>
        <r>   -14.0813     0.0000     0.0000     0.0000     0.0000     0.0000     0.0000     0.0000     0.0000     0.0000 </r>
        <r>   -14.0110     0.0000     0.0000     0.0000     0.0000     0.0000     0.0000     0.0000     0.0000     0.0000 </r>
        <r>   -13.9408     0.0000     0.0000     0.0000     0.0000     0.0000     0.0000     0.0000     0.0000     0.0000 </r>
        <r>   -13.8705     0.0000     0.0000     0.0000     0.0000     0.0000     0.0000     0.0000     0.0000     0.0000 </r>
        <r>   -13.8003     0.0000     0.0000     0.0000     0.0000     0.0000     0.0000     0.0000     0.0000     0.0000 </r>
        <r>   -13.7300     0.0000     0.0000     0.0000     0.0000     0.0000     0.0000     0.0000     0.0000     0.0000 </r>
        <r>   -13.6598     0.0000     0.0000     0.0000     0.0000     0.0000     0.0000     0.0000     0.0000     0.0000 </r>
        <r>   -13.5895     0.0000     0.0000     0.0000     0.0000     0.0000     0.0000     0.0000     0.0000     0.0000 </r>
        <r>   -13.5192     0.0000     0.0000     0.0000     0.0000     0.0000     0.0000     0.0000     0.0000     0.0000 </r>
        <r>   -13.4490     0.0000     0.0000     0.0000     0.0000     0.0000     0.0000     0.0000     0.0000     0.0000 </r>
        <r>   -13.3787     0.0000     0.0000     0.0000     0.0000     0.0000     0.0000     0.0000     0.0000     0.0000 </r>
        <r>   -13.3085     0.0000     0.0000     0.0000     0.0000     0.0000     0.0000     0.0000     0.0000     0.0000 </r>
        <r>   -13.2382     0.0000     0.0000     0.0000     0.0000     0.0000     0.0000     0.0000     0.0000     0.0000 </r>
        <r>   -13.1680     0.0000     0.0000     0.0000     0.0000     0.0000     0.0000     0.0000     0.0000     0.0000 </r>
        <r>   -13.0977     0.0000     0.0000     0.0000     0.0000     0.0000     0.0000     0.0000     0.0000     0.0000 </r>
        <r>   -13.0275     0.0000     0.0000     0.0000     0.0000     0.0000     0.0000     0.0000     0.0000     0.0000 </r>
        <r>   -12.9572     0.0000     0.0000     0.0000     0.0000     0.0000     0.0000     0.0000     0.0000     0.0000 </r>
        <r>   -12.8870     0.0000     0.0000     0.0000     0.0000     0.0000     0.0000     0.0000     0.0000     0.0000 </r>
        <r>   -12.8167     0.0000     0.0000     0.0000     0.0000     0.0000     0.0000     0.0000     0.0000     0.0000 </r>
        <r>   -12.7465     0.0000     0.0000     0.0000     0.0000     0.0000     0.0000     0.0000     0.0000     0.0000 </r>
        <r>   -12.6762     0.0000     0.0000     0.0000     0.0000     0.0000     0.0000     0.0000     0.0000     0.0000 </r>
        <r>   -12.6060     0.0000     0.0000     0.0000     0.0000     0.0000     0.0000     0.0000     0.0000     0.0000 </r>
        <r>   -12.5357     0.0000     0.0000     0.0000     0.0000     0.0000     0.0000     0.0000     0.0000     0.0000 </r>
        <r>   -12.4654     0.0000     0.0000     0.0000     0.0000     0.0000     0.0000     0.0000     0.0000     0.0000 </r>
        <r>   -12.3952     0.0000     0.0000     0.0000     0.0000     0.0000     0.0000     0.0000     0.0000     0.0000 </r>
        <r>   -12.3249     0.0000     0.0000     0.0000     0.0000     0.0000     0.0000     0.0000     0.0000     0.0000 </r>
        <r>   -12.2547     0.0000     0.0000     0.0000     0.0000     0.0000     0.0000     0.0000     0.0000     0.0000 </r>
        <r>   -12.1844     0.0000     0.0000     0.0000     0.0000     0.0000     0.0000     0.0000     0.0000     0.0000 </r>
        <r>   -12.1142     0.0000     0.0000     0.0000     0.0000     0.0000     0.0000     0.0000     0.0000     0.0000 </r>
        <r>   -12.0439     0.0000     0.0000     0.0000     0.0000     0.0000     0.0000     0.0000     0.0000     0.0000 </r>
        <r>   -11.9737     0.0000     0.0000     0.0000     0.0000     0.0000     0.0000     0.0000     0.0000     0.0000 </r>
        <r>   -11.9034     0.0000     0.0000     0.0000     0.0000     0.0000     0.0000     0.0000     0.0000     0.0000 </r>
        <r>   -11.8332     0.0000     0.0000     0.0000     0.0000     0.0000     0.0000     0.0000     0.0000     0.0000 </r>
        <r>   -11.7629     0.0000     0.0000     0.0000     0.0000     0.0000     0.0000     0.0000     0.0000     0.0000 </r>
        <r>   -11.6927     0.0000     0.0000     0.0000     0.0000     0.0000     0.0000     0.0000     0.0000     0.0000 </r>
        <r>   -11.6224     0.0000     0.0000     0.0000     0.0000     0.0000     0.0000     0.0000     0.0000     0.0000 </r>
        <r>   -11.5521     0.0000     0.0000     0.0000     0.0000     0.0000     0.0000     0.0000     0.0000     0.0000 </r>
        <r>   -11.4819     0.0000     0.0000     0.0000     0.0000     0.0000     0.0000     0.0000     0.0000     0.0000 </r>
        <r>   -11.4116     0.0000     0.0000     0.0000     0.0000     0.0000     0.0000     0.0000     0.0000     0.0000 </r>
        <r>   -11.3414     0.0000     0.0000     0.0000     0.0000     0.0000     0.0000     0.0000     0.0000     0.0000 </r>
        <r>   -11.2711     0.0000     0.0000     0.0000     0.0000     0.0000     0.0000     0.0000     0.0000     0.0000 </r>
        <r>   -11.2009     0.0000     0.0000     0.0000     0.0000     0.0000     0.0000     0.0000     0.0000     0.0000 </r>
        <r>   -11.1306     0.0000     0.0000     0.0000     0.0000     0.0000     0.0000     0.0000     0.0000     0.0000 </r>
        <r>   -11.0604     0.0000     0.0000     0.0000     0.0000     0.0000     0.0000     0.0000     0.0000     0.0000 </r>
        <r>   -10.9901     0.0000     0.0000     0.0000     0.0000     0.0000     0.0000     0.0000     0.0000     0.0000 </r>
        <r>   -10.9199     0.0000     0.0000     0.0000     0.0000     0.0000     0.0000     0.0000     0.0000     0.0000 </r>
        <r>   -10.8496     0.0000     0.0000     0.0000     0.0000     0.0000     0.0000     0.0000     0.0000     0.0000 </r>
        <r>   -10.7794     0.0000     0.0000     0.0000     0.0000     0.0000     0.0000     0.0000     0.0000     0.0000 </r>
        <r>   -10.7091     0.0000     0.0000     0.0000     0.0000     0.0000     0.0000     0.0000     0.0000     0.0000 </r>
        <r>   -10.6389     0.0000     0.0000     0.0000     0.0000     0.0000     0.0000     0.0000     0.0000     0.0000 </r>
        <r>   -10.5686     0.0000     0.0000     0.0000     0.0000     0.0000     0.0000     0.0000     0.0000     0.0000 </r>
        <r>   -10.4983     0.0000     0.0000     0.0000     0.0000     0.0000     0.0000     0.0000     0.0000     0.0000 </r>
        <r>   -10.4281     0.0000     0.0000     0.0000     0.0000     0.0000     0.0000     0.0000     0.0000     0.0000 </r>
        <r>   -10.3578     0.0000     0.0000     0.0000     0.0000     0.0000     0.0000     0.0000     0.0000     0.0000 </r>
        <r>   -10.2876     0.0000     0.0000     0.0000     0.0000     0.0000     0.0000     0.0000     0.0000     0.0000 </r>
        <r>   -10.2173     0.0000     0.0000     0.0000     0.0000     0.0000     0.0000     0.0000     0.0000     0.0000 </r>
        <r>   -10.1471     0.0000     0.0000     0.0000     0.0000     0.0000     0.0000     0.0000     0.0000     0.0000 </r>
        <r>   -10.0768     0.0000     0.0000     0.0000     0.0000     0.0000     0.0000     0.0000     0.0000     0.0000 </r>
        <r>   -10.0066     0.0000     0.0000     0.0000     0.0000     0.0000     0.0000     0.0000     0.0000     0.0000 </r>
        <r>    -9.9363     0.0000     0.0000     0.0000     0.0000     0.0000     0.0000     0.0000     0.0000     0.0000 </r>
        <r>    -9.8661     0.0000     0.0000     0.0000     0.0000     0.0000     0.0000     0.0000     0.0000     0.0000 </r>
        <r>    -9.7958     0.0000     0.0000     0.0000     0.0000     0.0000     0.0000     0.0000     0.0000     0.0000 </r>
        <r>    -9.7256     0.0000     0.0000     0.0000     0.0000     0.0000     0.0000     0.0000     0.0000     0.0000 </r>
        <r>    -9.6553     0.0000     0.0000     0.0000     0.0000     0.0000     0.0000     0.0000     0.0000     0.0000 </r>
        <r>    -9.5850     0.0000     0.0000     0.0000     0.0000     0.0000     0.0000     0.0000     0.0000     0.0000 </r>
        <r>    -9.5148     0.0000     0.0000     0.0000     0.0000     0.0000     0.0000     0.0000     0.0000     0.0000 </r>
        <r>    -9.4445     0.0000     0.0000     0.0000     0.0000     0.0000     0.0000     0.0000     0.0000     0.0000 </r>
        <r>    -9.3743     0.0000     0.0255     0.0255     0.0255     0.0000     0.0000     0.0000     0.0000     0.0000 </r>
        <r>    -9.3040     0.0000     1.0017     1.0017     1.0017     0.0000     0.0000     0.0000     0.0000     0.0000 </r>
        <r>    -9.2338     0.0000     1.7755     1.7755     1.7755     0.0000     0.0000     0.0000     0.0000     0.0000 </r>
        <r>    -9.1635     0.0000     0.1651     0.1651     0.1651     0.0000     0.0000     0.0000     0.0000     0.0000 </r>
        <r>    -9.0933     0.0000     0.0005     0.0005     0.0005     0.0000     0.0000     0.0000     0.0000     0.0000 </r>
        <r>    -9.0230     0.0000     0.0000     0.0000     0.0000     0.0000     0.0000     0.0000     0.0000     0.0000 </r>
        <r>    -8.9528     0.0000     0.0000     0.0000     0.0000     0.0000     0.0000     0.0000     0.0000     0.0000 </r>
        <r>    -8.8825     0.0000     0.0000     0.0000     0.0000     0.0000     0.0000     0.0000     0.0000     0.0000 </r>
        <r>    -8.8123     0.0000     0.0000     0.0000     0.0000     0.0000     0.0000     0.0000     0.0000     0.0000 </r>
        <r>    -8.7420     0.0000     0.0000     0.0000     0.0000     0.0000     0.0000     0.0000     0.0000     0.0000 </r>
        <r>    -8.6718     0.0000     0.0000     0.0000     0.0000     0.0000     0.0000     0.0000     0.0000     0.0000 </r>
        <r>    -8.6015     0.0000     0.0000     0.0000     0.0000     0.0000     0.0000     0.0000     0.0000     0.0000 </r>
        <r>    -8.5312     0.0000     0.0000     0.0000     0.0000     0.0000     0.0000     0.0000     0.0000     0.0000 </r>
        <r>    -8.4610     0.0000     0.0000     0.0000     0.0000     0.0000     0.0000     0.0000     0.0000     0.0000 </r>
        <r>    -8.3907     0.0000     0.0000     0.0000     0.0000     0.0000     0.0000     0.0000     0.0000     0.0000 </r>
        <r>    -8.3205     0.0000     0.0000     0.0000     0.0000     0.0000     0.0000     0.0000     0.0000     0.0000 </r>
        <r>    -8.2502     0.0000     0.0000     0.0000     0.0000     0.0000     0.0000     0.0000     0.0000     0.0000 </r>
        <r>    -8.1800     0.0000     0.0000     0.0000     0.0000     0.0000     0.0000     0.0000     0.0000     0.0000 </r>
        <r>    -8.1097     0.0000     0.0000     0.0000     0.0000     0.0000     0.0000     0.0000     0.0000     0.0000 </r>
        <r>    -8.0395     0.0000     0.0000     0.0000     0.0000     0.0000     0.0000     0.0000     0.0000     0.0000 </r>
        <r>    -7.9692     0.0000     0.0000     0.0000     0.0000     0.0000     0.0000     0.0000     0.0000     0.0000 </r>
        <r>    -7.8990     0.0000     0.0000     0.0000     0.0000     0.0000     0.0000     0.0000     0.0000     0.0000 </r>
        <r>    -7.8287     0.0000     0.0000     0.0000     0.0000     0.0000     0.0000     0.0000     0.0000     0.0000 </r>
        <r>    -7.7585     0.0000     0.0000     0.0000     0.0000     0.0000     0.0000     0.0000     0.0000     0.0000 </r>
        <r>    -7.6882     0.0000     0.0000     0.0000     0.0000     0.0000     0.0000     0.0000     0.0000     0.0000 </r>
        <r>    -7.6179     0.0000     0.0000     0.0000     0.0000     0.0000     0.0000     0.0000     0.0000     0.0000 </r>
        <r>    -7.5477     0.0000     0.0000     0.0000     0.0000     0.0000     0.0000     0.0000     0.0000     0.0000 </r>
        <r>    -7.4774     0.0000     0.0000     0.0000     0.0000     0.0000     0.0000     0.0000     0.0000     0.0000 </r>
        <r>    -7.4072     0.0000     0.0000     0.0000     0.0000     0.0000     0.0000     0.0000     0.0000     0.0000 </r>
        <r>    -7.3369     0.0000     0.0000     0.0000     0.0000     0.0000     0.0000     0.0000     0.0000     0.0000 </r>
        <r>    -7.2667     0.0000     0.0000     0.0000     0.0000     0.0000     0.0000     0.0000     0.0000     0.0000 </r>
        <r>    -7.1964     0.0000     0.0000     0.0000     0.0000     0.0000     0.0000     0.0000     0.0000     0.0000 </r>
        <r>    -7.1262     0.0000     0.0000     0.0000     0.0000     0.0000     0.0000     0.0000     0.0000     0.0000 </r>
        <r>    -7.0559     0.0000     0.0000     0.0000     0.0000     0.0000     0.0000     0.0000     0.0000     0.0000 </r>
        <r>    -6.9857     0.0000     0.0000     0.0000     0.0000     0.0000     0.0000     0.0000     0.0000     0.0000 </r>
        <r>    -6.9154     0.0000     0.0000     0.0000     0.0000     0.0000     0.0000     0.0000     0.0000     0.0000 </r>
        <r>    -6.8452     0.0000     0.0000     0.0000     0.0000     0.0000     0.0000     0.0000     0.0000     0.0000 </r>
        <r>    -6.7749     0.0000     0.0000     0.0000     0.0000     0.0000     0.0000     0.0000     0.0000     0.0000 </r>
        <r>    -6.7047     0.0000     0.0000     0.0000     0.0000     0.0000     0.0000     0.0000     0.0000     0.0000 </r>
        <r>    -6.6344     0.0000     0.0000     0.0000     0.0000     0.0000     0.0000     0.0000     0.0000     0.0000 </r>
        <r>    -6.5641     0.0000     0.0000     0.0000     0.0000     0.0000     0.0000     0.0000     0.0000     0.0000 </r>
        <r>    -6.4939     0.0000     0.0000     0.0000     0.0000     0.0000     0.0000     0.0000     0.0000     0.0000 </r>
        <r>    -6.4236     0.0000     0.0000     0.0000     0.0000     0.0000     0.0000     0.0000     0.0000     0.0000 </r>
        <r>    -6.3534     0.0000     0.0000     0.0000     0.0000     0.0000     0.0000     0.0000     0.0000     0.0000 </r>
        <r>    -6.2831     0.0000     0.0000     0.0000     0.0000     0.0000     0.0000     0.0000     0.0000     0.0000 </r>
        <r>    -6.2129     0.0000     0.0000     0.0000     0.0000     0.0000     0.0000     0.0000     0.0000     0.0000 </r>
        <r>    -6.1426     0.0000     0.0000     0.0000     0.0000     0.0000     0.0000     0.0000     0.0000     0.0000 </r>
        <r>    -6.0724     0.0000     0.0000     0.0000     0.0000     0.0000     0.0000     0.0000     0.0000     0.0000 </r>
        <r>    -6.0021     0.0000     0.0000     0.0000     0.0000     0.0000     0.0000     0.0000     0.0000     0.0000 </r>
        <r>    -5.9319     0.0000     0.0000     0.0000     0.0000     0.0000     0.0000     0.0000     0.0000     0.0000 </r>
        <r>    -5.8616     0.0000     0.0000     0.0000     0.0000     0.0000     0.0000     0.0000     0.0000     0.0000 </r>
        <r>    -5.7914     0.0000     0.0000     0.0000     0.0000     0.0000     0.0000     0.0000     0.0000     0.0000 </r>
        <r>    -5.7211     0.0000     0.0000     0.0000     0.0000     0.0000     0.0000     0.0000     0.0000     0.0000 </r>
        <r>    -5.6509     0.0000     0.0000     0.0000     0.0000     0.0000     0.0000     0.0000     0.0000     0.0000 </r>
        <r>    -5.5806     0.0000     0.0000     0.0000     0.0000     0.0000     0.0000     0.0000     0.0000     0.0000 </r>
        <r>    -5.5103     0.0000     0.0000     0.0000     0.0000     0.0000     0.0000     0.0000     0.0000     0.0000 </r>
        <r>    -5.4401     0.0000     0.0000     0.0000     0.0000     0.0000     0.0000     0.0000     0.0000     0.0000 </r>
        <r>    -5.3698     0.0000     0.0000     0.0000     0.0000     0.0000     0.0000     0.0000     0.0000     0.0000 </r>
        <r>    -5.2996     0.0000     0.0000     0.0000     0.0000     0.0000     0.0000     0.0000     0.0000     0.0000 </r>
        <r>    -5.2293     0.0000     0.0000     0.0000     0.0000     0.0000     0.0000     0.0000     0.0000     0.0000 </r>
        <r>    -5.1591     0.0000     0.0000     0.0000     0.0000     0.0000     0.0000     0.0000     0.0000     0.0000 </r>
        <r>    -5.0888     0.0000     0.0000     0.0000     0.0000     0.0000     0.0000     0.0000     0.0000     0.0000 </r>
        <r>    -5.0186     0.0000     0.0000     0.0000     0.0000     0.0000     0.0000     0.0000     0.0000     0.0000 </r>
        <r>    -4.9483     0.0000     0.0000     0.0000     0.0000     0.0000     0.0000     0.0000     0.0000     0.0000 </r>
        <r>    -4.8781     0.0000     0.0000     0.0000     0.0000     0.0000     0.0000     0.0000     0.0000     0.0000 </r>
        <r>    -4.8078     0.0001     0.0003     0.0003     0.0003     0.0000     0.0000     0.0000     0.0000     0.0000 </r>
        <r>    -4.7376     0.0274     0.1033     0.1033     0.1033     0.0000     0.0000     0.0000     0.0000     0.0000 </r>
        <r>    -4.6673     0.2852     1.0767     1.0767     1.0767     0.0000     0.0000     0.0000     0.0000     0.0000 </r>
        <r>    -4.5970     0.1563     0.5901     0.5901     0.5901     0.0000     0.0000     0.0000     0.0000     0.0000 </r>
        <r>    -4.5268     0.0038     0.0145     0.0145     0.0145     0.0000     0.0000     0.0000     0.0000     0.0000 </r>
        <r>    -4.4565     0.0000     0.0000     0.0000     0.0000     0.0000     0.0000     0.0000     0.0000     0.0000 </r>
        <r>    -4.3863     0.0000     0.0000     0.0000     0.0000     0.0000     0.0000     0.0000     0.0000     0.0000 </r>
        <r>    -4.3160     0.0000     0.0000     0.0000     0.0000     0.0000     0.0000     0.0000     0.0000     0.0000 </r>
        <r>    -4.2458     0.0000     0.0000     0.0000     0.0000     0.0000     0.0000     0.0000     0.0000     0.0000 </r>
        <r>    -4.1755     0.0000     0.0000     0.0000     0.0000     0.0000     0.0000     0.0000     0.0000     0.0000 </r>
        <r>    -4.1053     0.0000     0.0000     0.0000     0.0000     0.0000     0.0000     0.0000     0.0000     0.0000 </r>
        <r>    -4.0350     0.0000     0.0000     0.0000     0.0000     0.0000     0.0000     0.0000     0.0000     0.0000 </r>
        <r>    -3.9648     0.0000     0.0000     0.0000     0.0000     0.0000     0.0000     0.0000     0.0000     0.0000 </r>
        <r>    -3.8945     0.0000     0.0000     0.0000     0.0000     0.0000     0.0000     0.0000     0.0000     0.0000 </r>
        <r>    -3.8243     0.0000     0.0000     0.0000     0.0000     0.0000     0.0000     0.0000     0.0000     0.0000 </r>
        <r>    -3.7540     0.0000     0.0000     0.0000     0.0000     0.0000     0.0000     0.0000     0.0000     0.0000 </r>
        <r>    -3.6838     0.0000     0.0000     0.0000     0.0000     0.0000     0.0000     0.0000     0.0000     0.0000 </r>
        <r>    -3.6135     0.0000     0.0000     0.0000     0.0000     0.0000     0.0000     0.0000     0.0000     0.0000 </r>
        <r>    -3.5432     0.0000     0.0000     0.0000     0.0000     0.0000     0.0000     0.0000     0.0000     0.0000 </r>
        <r>    -3.4730     0.0000     0.0000     0.0000     0.0000     0.0000     0.0000     0.0000     0.0000     0.0000 </r>
        <r>    -3.4027     0.0000     0.0000     0.0000     0.0000     0.0000     0.0000     0.0000     0.0000     0.0000 </r>
        <r>    -3.3325     0.0000     0.0000     0.0000     0.0000     0.0000     0.0000     0.0000     0.0000     0.0000 </r>
        <r>    -3.2622     0.0000     0.0000     0.0000     0.0000     0.0000     0.0000     0.0000     0.0000     0.0000 </r>
        <r>    -3.1920     0.0000     0.0000     0.0000     0.0000     0.0000     0.0000     0.0000     0.0000     0.0000 </r>
        <r>    -3.1217     0.0000     0.0000     0.0000     0.0000     0.0000     0.0000     0.0000     0.0000     0.0000 </r>
        <r>    -3.0515     0.0000     0.0000     0.0000     0.0000     0.0000     0.0000     0.0000     0.0000     0.0000 </r>
        <r>    -2.9812     0.0000     0.0000     0.0000     0.0000     0.0000     0.0000     0.0000     0.0000     0.0000 </r>
        <r>    -2.9110     0.0000     0.0000     0.0000     0.0000     0.0000     0.0000     0.0000     0.0000     0.0000 </r>
        <r>    -2.8407     0.0000     0.0000     0.0000     0.0000     0.0000     0.0000     0.0000     0.0000     0.0000 </r>
        <r>    -2.7705     0.0000     0.0000     0.0000     0.0000     0.0000     0.0000     0.0000     0.0000     0.0000 </r>
        <r>    -2.7002     0.0000     0.0000     0.0000     0.0000     0.0000     0.0000     0.0000     0.0000     0.0000 </r>
        <r>    -2.6299     0.0000     0.0000     0.0000     0.0000     0.0000     0.0000     0.0000     0.0000     0.0000 </r>
        <r>    -2.5597     0.0000     0.0000     0.0000     0.0000     0.0000     0.0000     0.0000     0.0000     0.0000 </r>
        <r>    -2.4894     0.0000     0.0000     0.0000     0.0000     0.0000     0.0000     0.0000     0.0000     0.0000 </r>
        <r>    -2.4192     0.0000     0.0000     0.0000     0.0000     0.0000     0.0000     0.0000     0.0000     0.0000 </r>
        <r>    -2.3489     0.0000     0.0000     0.0000     0.0000     0.0000     0.0000     0.0000     0.0000     0.0000 </r>
        <r>    -2.2787     0.0000     0.0000     0.0000     0.0000     0.0000     0.0000     0.0000     0.0000     0.0000 </r>
        <r>    -2.2084     0.0000     0.0000     0.0000     0.0000     0.0000     0.0000     0.0000     0.0000     0.0000 </r>
        <r>    -2.1382     0.0000     0.0000     0.0000     0.0000     0.0000     0.0000     0.0000     0.0000     0.0000 </r>
        <r>    -2.0679     0.0000     0.0000     0.0000     0.0000     0.0000     0.0000     0.0000     0.0000     0.0000 </r>
        <r>    -1.9977     0.0000     0.0000     0.0000     0.0000     0.0000     0.0000     0.0000     0.0000     0.0000 </r>
[...]
        <r>    -1.7167     0.0000     0.0000     0.0000     0.0000     0.0000     0.0000     0.0000     0.0000     0.0000 </r>
        <r>    -1.6464     0.0000     0.0000     0.0000     0.0000     0.0000     0.0000     0.0000     0.0000     0.0000 </r>
        <r>    -1.5761     0.0000     0.0000     0.0000     0.0000     0.0000     0.0000     0.0000     0.0000     0.0000 </r>
        <r>    -1.5059     0.0000     0.0000     0.0000     0.0000     0.0000     0.0000     0.0000     0.0000     0.0000 </r>
        <r>    -1.4356     0.0000     0.0000     0.0000     0.0000     0.0000     0.0000     0.0000     0.0000     0.0000 </r>
        <r>    -1.3654     0.0000     0.0000     0.0000     0.0000     0.0000     0.0000     0.0000     0.0000     0.0000 </r>
        <r>    -1.2951     0.0000     0.0000     0.0000     0.0000     0.0000     0.0000     0.0000     0.0000     0.0000 </r>
        <r>    -1.2249     0.0000     0.0000     0.0000     0.0000     0.0000     0.0000     0.0000     0.0000     0.0000 </r>
        <r>    -1.1546     0.0000     0.0000     0.0000     0.0000     0.0000     0.0000     0.0000     0.0000     0.0000 </r>
        <r>    -1.0844     0.0000     0.0000     0.0000     0.0000     0.0000     0.0000     0.0000     0.0000     0.0000 </r>
        <r>    -1.0141     0.0000     0.0000     0.0000     0.0000     0.0000     0.0000     0.0000     0.0000     0.0000 </r>
        <r>    -0.9439     0.0000     0.0000     0.0000     0.0000     0.0000     0.0000     0.0000     0.0000     0.0000 </r>
        <r>    -0.8736     0.0000     0.0002     0.0002     0.0002     0.0000     0.0000     0.0000     0.0000     0.0000 </r>
        <r>    -0.8034     0.0000     0.0046     0.0064     0.0046     0.0000     0.0000     0.0000     0.0000     0.0000 </r>
        <r>    -0.7331     0.0000     0.0060     0.0084     0.0060     0.0000     0.0000     0.0000     0.0000     0.0000 </r>
        <r>    -0.6629     0.0000     0.0004     0.0006     0.0004     0.0000     0.0000     0.0000     0.0000     0.0000 </r>
        <r>    -0.5926     0.0000     0.0000     0.0000     0.0000     0.0000     0.0000     0.0000     0.0000     0.0000 </r>
        <r>    -0.5223     0.0000     0.0000     0.0000     0.0000     0.0000     0.0000     0.0000     0.0000     0.0000 </r>
        <r>    -0.4521     0.0000     0.0000     0.0000     0.0000     0.0000     0.0000     0.0000     0.0000     0.0000 </r>
        <r>    -0.3818     0.0000     0.0000     0.0000     0.0000     0.0000     0.0000     0.0000     0.0000     0.0000 </r>
        <r>    -0.3116     0.0000     0.0000     0.0000     0.0000     0.0000     0.0000     0.0000     0.0000     0.0000 </r>
        <r>    -0.2413     0.0000     0.0000     0.0000     0.0000     0.0000     0.0000     0.0000     0.0000     0.0000 </r>
        <r>    -0.1711     0.0000     0.0000     0.0000     0.0000     0.0000     0.0000     0.0000     0.0000     0.0000 </r>
        <r>    -0.1008     0.0000     0.0000     0.0000     0.0000     0.0000     0.0000     0.0000     0.0000     0.0000 </r>
        <r>    -0.0306     0.0000     0.0000     0.0000     0.0000     0.0000     0.0000     0.0000     0.0000     0.0000 </r>
        <r>     0.0397     0.0000     0.0000     0.0000     0.0000     0.0000     0.0000     0.0000     0.0000     0.0000 </r>
        <r>     0.1099     0.0000     0.0000     0.0000     0.0000     0.0000     0.0000     0.0000     0.0000     0.0000 </r>
        <r>     0.1802     0.0000     0.0000     0.0000     0.0000     0.0000     0.0000     0.0000     0.0000     0.0000 </r>
        <r>     0.2504     0.0000     0.0000     0.0000     0.0000     0.0000     0.0000     0.0000     0.0000     0.0000 </r>
        <r>     0.3207     0.0000     0.0000     0.0000     0.0000     0.0000     0.0000     0.0000     0.0000     0.0000 </r>
        <r>     0.3910     0.0000     0.0000     0.0000     0.0000     0.0000     0.0000     0.0000     0.0000     0.0000 </r>
        <r>     0.4612     0.0000     0.0000     0.0000     0.0000     0.0000     0.0000     0.0000     0.0000     0.0000 </r>
        <r>     0.5315     0.0000     0.0000     0.0000     0.0000     0.0000     0.0000     0.0000     0.0000     0.0000 </r>
        <r>     0.6017     0.0000     0.0000     0.0000     0.0000     0.0000     0.0000     0.0000     0.0000     0.0000 </r>
        <r>     0.6720     0.0000     0.0000     0.0000     0.0000     0.0000     0.0000     0.0000     0.0000     0.0000 </r>
        <r>     0.7422     0.0000     0.0000     0.0000     0.0000     0.0000     0.0000     0.0000     0.0000     0.0000 </r>
        <r>     0.8125     0.0000     0.0000     0.0000     0.0000     0.0000     0.0000     0.0000     0.0000     0.0000 </r>
        <r>     0.8827     0.0000     0.0000     0.0000     0.0000     0.0000     0.0000     0.0000     0.0000     0.0000 </r>
        <r>     0.9530     0.0000     0.0000     0.0000     0.0000     0.0000     0.0000     0.0000     0.0000     0.0000 </r>
        <r>     1.0232     0.0000     0.0000     0.0000     0.0000     0.0000     0.0000     0.0000     0.0000     0.0000 </r>
        <r>     1.0935     0.0000     0.0000     0.0000     0.0000     0.0000     0.0000     0.0000     0.0000     0.0000 </r>
        <r>     1.1637     0.0000     0.0000     0.0000     0.0000     0.0000     0.0000     0.0000     0.0000     0.0000 </r>
        <r>     1.2340     0.0000     0.0000     0.0000     0.0000     0.0000     0.0000     0.0000     0.0000     0.0000 </r>
        <r>     1.3042     0.0000     0.0000     0.0000     0.0000     0.0000     0.0000     0.0000     0.0000     0.0000 </r>
        <r>     1.3745     0.0000     0.0000     0.0000     0.0000     0.0000     0.0000     0.0000     0.0000     0.0000 </r>
        <r>     1.4448     0.0000     0.0000     0.0000     0.0000     0.0000     0.0000     0.0000     0.0000     0.0000 </r>
        <r>     1.5150     0.0000     0.0000     0.0000     0.0000     0.0000     0.0000     0.0000     0.0000     0.0000 </r>
        <r>     1.5853     0.0000     0.0000     0.0000     0.0000     0.0000     0.0000     0.0000     0.0000     0.0000 </r>
        <r>     1.6555     0.0000     0.0000     0.0000     0.0000     0.0000     0.0000     0.0000     0.0000     0.0000 </r>
        <r>     1.7258     0.0000     0.0000     0.0000     0.0000     0.0000     0.0000     0.0000     0.0000     0.0000 </r>
        <r>     1.7960     0.0000     0.0000     0.0000     0.0000     0.0000     0.0000     0.0000     0.0000     0.0000 </r>
        <r>     1.8663     0.0000     0.0000     0.0000     0.0000     0.0000     0.0000     0.0000     0.0000     0.0000 </r>
        <r>     1.9365     0.0000     0.0000     0.0000     0.0000     0.0000     0.0000     0.0000     0.0000     0.0000 </r>
        <r>     2.0068     0.0000     0.0000     0.0000     0.0000     0.0000     0.0000     0.0000     0.0000     0.0000 </r>
        <r>     2.0770     0.0000     0.0000     0.0000     0.0000     0.0000     0.0000     0.0000     0.0000     0.0000 </r>
        <r>     2.1473     0.0000     0.0000     0.0000     0.0000     0.0000     0.0000     0.0000     0.0000     0.0000 </r>
        <r>     2.2175     0.0000     0.0000     0.0000     0.0000     0.0000     0.0000     0.0000     0.0000     0.0000 </r>
        <r>     2.2878     0.0000     0.0000     0.0000     0.0000     0.0000     0.0000     0.0000     0.0000     0.0000 </r>
        <r>     2.3581     0.0002     0.0004     0.0003     0.0004     0.0000     0.0000     0.0000     0.0000     0.0000 </r>
        <r>     2.4283     0.0036     0.0072     0.0060     0.0072     0.0000     0.0000     0.0000     0.0000     0.0000 </r>
        <r>     2.4986     0.0031     0.0062     0.0052     0.0062     0.0000     0.0000     0.0000     0.0000     0.0000 </r>
        <r>     2.5688     0.0001     0.0003     0.0002     0.0003     0.0000     0.0000     0.0000     0.0000     0.0000 </r>
        <r>     2.6391     0.0000     0.0000     0.0000     0.0000     0.0000     0.0000     0.0000     0.0000     0.0000 </r>
        <r>     2.7093     0.0000     0.0002     0.0001     0.0002     0.0000     0.0000     0.0000     0.0000     0.0000 </r>
        <r>     2.7796     0.0001     0.0131     0.0083     0.0131     0.0000     0.0000     0.0000     0.0000     0.0000 </r>
        <r>     2.8498     0.0003     0.0373     0.0235     0.0373     0.0000     0.0000     0.0000     0.0000     0.0000 </r>
        <r>     2.9201     0.0001     0.0058     0.0036     0.0058     0.0000     0.0000     0.0000     0.0000     0.0000 </r>
        <r>     2.9903     0.0000     0.0000     0.0000     0.0000     0.0000     0.0000     0.0000     0.0000     0.0000 </r>
        <r>     3.0606     0.0000     0.0000     0.0000     0.0000     0.0000     0.0000     0.0000     0.0000     0.0000 </r>
        <r>     3.1308     0.0000     0.0000     0.0000     0.0000     0.0000     0.0000     0.0000     0.0000     0.0000 </r>
        <r>     3.2011     0.0000     0.0000     0.0000     0.0000     0.0000     0.0000     0.0000     0.0000     0.0000 </r>
        <r>     3.2713     0.0000     0.0000     0.0000     0.0000     0.0000     0.0000     0.0000     0.0000     0.0000 </r>
        <r>     3.3416     0.0000     0.0000     0.0000     0.0000     0.0000     0.0000     0.0000     0.0000     0.0000 </r>
        <r>     3.4119     0.0000     0.0000     0.0000     0.0000     0.0000     0.0000     0.0000     0.0000     0.0000 </r>
        <r>     3.4821     0.0000     0.0000     0.0000     0.0000     0.0000     0.0000     0.0000     0.0000     0.0000 </r>
        <r>     3.5524     0.0000     0.0000     0.0000     0.0000     0.0000     0.0000     0.0000     0.0000     0.0000 </r>
        <r>     3.6226     0.0000     0.0000     0.0000     0.0000     0.0000     0.0000     0.0000     0.0000     0.0000 </r>
        <r>     3.6929     0.0000     0.0000     0.0000     0.0000     0.0000     0.0000     0.0000     0.0000     0.0000 </r>
        <r>     3.7631     0.0000     0.0000     0.0000     0.0000     0.0000     0.0000     0.0000     0.0000     0.0000 </r>
       </set>
      </set>
     </set>
    </array>
   </partial>
  </dos>
  <projected>
   <eigenvalues>
    <array>
     <dimension dim="1">band</dimension>
     <dimension dim="2">kpoint</dimension>
     <dimension dim="3">spin</dimension>
     <field>eigene</field>
     <field>occ</field>
     <set>
      <set comment="spin 1">
       <set comment="kpoint 1">
        <r>  -16.3549    1.0000 </r>
        <r>   -9.2900    1.0000 </r>
        <r>   -9.2900    1.0000 </r>
        <r>   -4.6820    0.5056 </r>
        <r>   -0.7970    0.0000 </r>
        <r>    2.4237    0.0000 </r>
        <r>    2.4237    0.0000 </r>
        <r>    2.8051    0.0000 </r>
        <r>    2.8051    0.0000 </r>
       </set>
      </set>
      <set comment="spin 2">
       <set comment="kpoint 1">
        <r>  -16.3547    1.0000 </r>
        <r>   -9.2900    1.0000 </r>
        <r>   -9.2900    1.0000 </r>
        <r>   -4.6810    0.4944 </r>
        <r>   -0.7966    0.0000 </r>
        <r>    2.4247    0.0000 </r>
        <r>    2.4247    0.0000 </r>
        <r>    2.8051    0.0000 </r>
        <r>    2.8051    0.0000 </r>
       </set>
      </set>
     </set>
    </array>
   </eigenvalues>
   <array>
    <dimension dim="1">ion</dimension>
    <dimension dim="2">band</dimension>
    <dimension dim="3">kpoint</dimension>
    <dimension dim="4">spin</dimension>
    <field>  s</field>
    <field> py</field>
    <field> pz</field>
    <field> px</field>
    <field>dxy</field>
    <field>dyz</field>
    <field>dz2</field>
    <field>dxz</field>
    <field>dx2</field>
    <set>
     <set comment="spin1">
      <set comment="kpoint 1">
       <set comment="band 1">
        <r>  0.4087  0.0043  0.0043  0.0043  0.0000  0.0000  0.0000  0.0000  0.0000 </r>
        <r>  0.0866  0.0031  0.0022  0.0022  0.0000  0.0000  0.0000  0.0000  0.0000 </r>
        <r>  0.0866  0.0022  0.0022  0.0031  0.0000  0.0000  0.0000  0.0000  0.0000 </r>
        <r>  0.0866  0.0022  0.0031  0.0022  0.0000  0.0000  0.0000  0.0000  0.0000 </r>
       </set>
       <set comment="band 2">
        <r>  0.0000  0.0010  0.1683  0.1435  0.0000  0.0000  0.0000  0.0000  0.0000 </r>
        <r>  0.0011  0.0000  0.0010  0.0015  0.0000  0.0000  0.0000  0.0000  0.0000 </r>
        <r>  0.1596  0.0044  0.0007  0.0010  0.0000  0.0000  0.0000  0.0000  0.0000 </r>
        <r>  0.1873  0.0044  0.0012  0.0012  0.0000  0.0000  0.0000  0.0000  0.0000 </r>
       </set>
       <set comment="band 3">
        <r>  0.0000  0.2075  0.0402  0.0651  0.0000  0.0000  0.0000  0.0000  0.0000 </r>
        <r>  0.2309  0.0015  0.0034  0.0029  0.0000  0.0000  0.0000  0.0000  0.0000 </r>
        <r>  0.0724  0.0000  0.0037  0.0005  0.0000  0.0000  0.0000  0.0000  0.0000 </r>
        <r>  0.0447  0.0001  0.0003  0.0032  0.0000  0.0000  0.0000  0.0000  0.0000 </r>
       </set>
       <set comment="band 4">
        <r>  0.0332  0.1254  0.1254  0.1254  0.0000  0.0000  0.0000  0.0000  0.0000 </r>
        <r>  0.0093  0.0038  0.0008  0.0008  0.0000  0.0000  0.0000  0.0000  0.0000 </r>
        <r>  0.0093  0.0008  0.0008  0.0038  0.0000  0.0000  0.0000  0.0000  0.0000 </r>
        <r>  0.0093  0.0008  0.0038  0.0008  0.0000  0.0000  0.0000  0.0000  0.0000 </r>
       </set>
       <set comment="band 5">
        <r>  0.0321  0.0006  0.0006  0.0006  0.0000  0.0000  0.0000  0.0000  0.0000 </r>
        <r>  0.0000  0.0011  0.0008  0.0008  0.0000  0.0000  0.0000  0.0000  0.0000 </r>
        <r>  0.0000  0.0008  0.0008  0.0011  0.0000  0.0000  0.0000  0.0000  0.0000 </r>
        <r>  0.0000  0.0008  0.0011  0.0008  0.0000  0.0000  0.0000  0.0000  0.0000 </r>
       </set>
       <set comment="band 6">
        <r>  0.0000  0.0000  0.0000  0.0000  0.0000  0.0000  0.0000  0.0000  0.0000 </r>
        <r>  0.0003  0.0004  0.0001  0.0009  0.0000  0.0000  0.0000  0.0000  0.0000 </r>
        <r>  0.0005  0.0004  0.0000  0.0008  0.0000  0.0000  0.0000  0.0000  0.0000 </r>
        <r>  0.0000  0.0006  0.0000  0.0010  0.0000  0.0000  0.0000  0.0000  0.0000 </r>
       </set>
       <set comment="band 7">
        <r>  0.0000  0.0000  0.0000  0.0000  0.0000  0.0000  0.0000  0.0000  0.0000 </r>
        <r>  0.0002  0.0004  0.0009  0.0001  0.0000  0.0000  0.0000  0.0000  0.0000 </r>
        <r>  0.0000  0.0006  0.0010  0.0001  0.0000  0.0000  0.0000  0.0000  0.0000 </r>
        <r>  0.0005  0.0004  0.0008  0.0000  0.0000  0.0000  0.0000  0.0000  0.0000 </r>
       </set>
       <set comment="band 8">
        <r>  0.0000  0.0500  0.0063  0.0209  0.0000  0.0000  0.0000  0.0000  0.0000 </r>
        <r>  0.0000  0.0024  0.0039  0.0031  0.0000  0.0000  0.0000  0.0000  0.0000 </r>
        <r>  0.0000  0.0005  0.0028  0.0010  0.0000  0.0000  0.0000  0.0000  0.0000 </r>
        <r>  0.0000  0.0000  0.0003  0.0015  0.0000  0.0000  0.0000  0.0000  0.0000 </r>
       </set>
       <set comment="band 9">
        <r>  0.0000  0.0014  0.0452  0.0306  0.0000  0.0000  0.0000  0.0000  0.0000 </r>
        <r>  0.0000  0.0001  0.0001  0.0009  0.0000  0.0000  0.0000  0.0000  0.0000 </r>
        <r>  0.0000  0.0034  0.0011  0.0015  0.0000  0.0000  0.0000  0.0000  0.0000 </r>
        <r>  0.0000  0.0040  0.0022  0.0024  0.0000  0.0000  0.0000  0.0000  0.0000 </r>
       </set>
      </set>
     </set>
     <set comment="spin2">
      <set comment="kpoint 1">
       <set comment="band 1">
        <r>  0.4087  0.0043  0.0043  0.0043  0.0000  0.0000  0.0000  0.0000  0.0000 </r>
        <r>  0.0866  0.0031  0.0022  0.0022  0.0000  0.0000  0.0000  0.0000  0.0000 </r>
        <r>  0.0866  0.0022  0.0022  0.0031  0.0000  0.0000  0.0000  0.0000  0.0000 </r>
        <r>  0.0866  0.0022  0.0031  0.0022  0.0000  0.0000  0.0000  0.0000  0.0000 </r>
       </set>
       <set comment="band 2">
        <r>  0.0000  0.0098  0.1898  0.1132  0.0000  0.0000  0.0000  0.0000  0.0000 </r>
        <r>  0.0109  0.0001  0.0005  0.0022  0.0000  0.0000  0.0000  0.0000  0.0000 </r>
        <r>  0.1260  0.0043  0.0003  0.0008  0.0000  0.0000  0.0000  0.0000  0.0000 </r>
        <r>  0.2111  0.0041  0.0014  0.0018  0.0000  0.0000  0.0000  0.0000  0.0000 </r>
       </set>
       <set comment="band 3">
        <r>  0.0000  0.1987  0.0188  0.0953  0.0000  0.0000  0.0000  0.0000  0.0000 </r>
        <r>  0.2211  0.0014  0.0039  0.0022  0.0000  0.0000  0.0000  0.0000  0.0000 </r>
        <r>  0.1060  0.0001  0.0041  0.0007  0.0000  0.0000  0.0000  0.0000  0.0000 </r>
        <r>  0.0209  0.0003  0.0001  0.0026  0.0000  0.0000  0.0000  0.0000  0.0000 </r>
       </set>
       <set comment="band 4">
        <r>  0.0332  0.1254  0.1254  0.1254  0.0000  0.0000  0.0000  0.0000  0.0000 </r>
        <r>  0.0093  0.0038  0.0008  0.0008  0.0000  0.0000  0.0000  0.0000  0.0000 </r>
        <r>  0.0093  0.0008  0.0008  0.0038  0.0000  0.0000  0.0000  0.0000  0.0000 </r>
        <r>  0.0093  0.0008  0.0038  0.0008  0.0000  0.0000  0.0000  0.0000  0.0000 </r>
       </set>
       <set comment="band 5">
        <r>  0.0321  0.0006  0.0006  0.0006  0.0000  0.0000  0.0000  0.0000  0.0000 </r>
        <r>  0.0000  0.0011  0.0008  0.0008  0.0000  0.0000  0.0000  0.0000  0.0000 </r>
        <r>  0.0000  0.0008  0.0008  0.0011  0.0000  0.0000  0.0000  0.0000  0.0000 </r>
        <r>  0.0000  0.0008  0.0011  0.0008  0.0000  0.0000  0.0000  0.0000  0.0000 </r>
       </set>
       <set comment="band 6">
        <r>  0.0000  0.0000  0.0000  0.0000  0.0000  0.0000  0.0000  0.0000  0.0000 </r>
        <r>  0.0000  0.0001  0.0010  0.0006  0.0000  0.0000  0.0000  0.0000  0.0000 </r>
        <r>  0.0002  0.0001  0.0009  0.0004  0.0000  0.0000  0.0000  0.0000  0.0000 </r>
        <r>  0.0005  0.0000  0.0008  0.0004  0.0000  0.0000  0.0000  0.0000  0.0000 </r>
       </set>
       <set comment="band 7">
        <r>  0.0000  0.0000  0.0000  0.0000  0.0000  0.0000  0.0000  0.0000  0.0000 </r>
        <r>  0.0005  0.0008  0.0000  0.0004  0.0000  0.0000  0.0000  0.0000  0.0000 </r>
        <r>  0.0002  0.0009  0.0001  0.0004  0.0000  0.0000  0.0000  0.0000  0.0000 </r>
        <r>  0.0000  0.0010  0.0001  0.0006  0.0000  0.0000  0.0000  0.0000  0.0000 </r>
       </set>
       <set comment="band 8">
        <r>  0.0000  0.0462  0.0021  0.0287  0.0000  0.0000  0.0000  0.0000  0.0000 </r>
        <r>  0.0000  0.0022  0.0040  0.0026  0.0000  0.0000  0.0000  0.0000  0.0000 </r>
        <r>  0.0000  0.0010  0.0033  0.0014  0.0000  0.0000  0.0000  0.0000  0.0000 </r>
        <r>  0.0000  0.0001  0.0001  0.0010  0.0000  0.0000  0.0000  0.0000  0.0000 </r>
       </set>
       <set comment="band 9">
        <r>  0.0000  0.0052  0.0492  0.0227  0.0000  0.0000  0.0000  0.0000  0.0000 </r>
        <r>  0.0000  0.0003  0.0000  0.0014  0.0000  0.0000  0.0000  0.0000  0.0000 </r>
        <r>  0.0000  0.0029  0.0006  0.0011  0.0000  0.0000  0.0000  0.0000  0.0000 </r>
        <r>  0.0000  0.0039  0.0024  0.0030  0.0000  0.0000  0.0000  0.0000  0.0000 </r>
       </set>
      </set>
     </set>
    </set>
   </array>
  </projected>
 </calculation>
 <structure name="finalpos" >
  <crystal>
   <varray name="basis" >
    <v>       6.35000000       0.00000000       0.00000000 </v>
    <v>       0.00000000       6.35000000       0.00000000 </v>
    <v>       0.00000000       0.00000000       6.35000000 </v>
   </varray>
   <i name="volume">    256.04787500 </i>
   <varray name="rec_basis" >
    <v>       0.15748031       0.00000000       0.00000000 </v>
    <v>       0.00000000       0.15748031       0.00000000 </v>
    <v>       0.00000000       0.00000000       0.15748031 </v>
   </varray>
  </crystal>
  <varray name="positions" >
   <v>       0.50000000       0.50000000       0.50000000 </v>
   <v>       0.40098670       0.40098670       0.40098670 </v>
   <v>       0.59901330       0.59901330       0.40098670 </v>
   <v>       0.40098670       0.59901330       0.59901330 </v>
  </varray>
 </structure>
</modeling>
