Screening bandgap                       
   1.00000000000000     
     6.350000    0.000000    0.000000
     0.000000    6.350000    0.000000
     0.000000    0.000000    6.350000
   C    H 
     1     4
Direct
  0.500000  0.500000  0.500000
  0.400987  0.400987  0.400987
  0.599013  0.599013  0.400987
  0.400987  0.599013  0.599013
  0.599013  0.400987  0.599013
 
   56   56   56
 0.27506E-03 0.54944E-03 0.91777E-03 0.73571E-03 0.17538E-03 -.65774E-04 0.16856E-03 0.34591E-03 0.14460E-03 -.88435E-04
 0.64298E-04 0.51474E-03 0.93676E-03 0.12241E-02 0.13798E-02 0.12600E-02 0.79786E-03 0.29677E-03 0.13150E-03 0.25399E-03
 0.32180E-03 0.23937E-03 0.22024E-03 0.33672E-03 0.38749E-03 0.28526E-03 0.22580E-03 0.32824E-03 0.41318E-03 0.32824E-03
 0.22580E-03 0.28526E-03 0.38749E-03 0.33672E-03 0.22024E-03 0.23937E-03 0.32180E-03 0.25399E-03 0.13150E-03 0.29677E-03
 0.79786E-03 0.12600E-02 0.13798E-02 0.12241E-02 0.93676E-03 0.51474E-03 0.64298E-04 -.88435E-04 0.14460E-03 0.34591E-03
 0.16856E-03 -.65774E-04 0.17538E-03 0.73571E-03 0.91777E-03 0.54944E-03 0.54944E-03 0.67788E-03 0.79116E-03 0.54160E-03
 0.12537E-03 0.11959E-04 0.22077E-03 0.31765E-03 0.10972E-03 -.81764E-04 0.65449E-04 0.45229E-03 0.80851E-03 0.10526E-02
 0.11833E-02 0.10759E-02 0.67930E-03 0.25982E-03 0.14441E-03 0.29059E-03 0.37796E-03 0.28409E-03 0.19430E-03 0.23696E-03
 0.29558E-03 0.26046E-03 0.21562E-03 0.25005E-03 0.28767E-03 0.25005E-03 0.21562E-03 0.26046E-03 0.29558E-03 0.23696E-03
 0.19430E-03 0.28409E-03 0.37796E-03 0.29059E-03 0.14440E-03 0.25982E-03 0.67930E-03 0.10759E-02 0.11833E-02 0.10526E-02
 0.80851E-03 0.45229E-03 0.65449E-04 -.81765E-04 0.10972E-03 0.31764E-03 0.22077E-03 0.11958E-04 0.12537E-03 0.54160E-03
 0.79116E-03 0.67788E-03 0.91777E-03 0.79116E-03 0.48415E-03 0.19244E-03 0.11365E-03 0.25109E-03 0.37859E-03 0.29244E-03
 0.68739E-04 -.28234E-04 0.12666E-03 0.39957E-03 0.60697E-03 0.70577E-03 0.72041E-03 0.61966E-03 0.39515E-03 0.18768E-03
 0.17799E-03 0.34715E-03 0.47000E-03 0.38674E-03 0.18856E-03 0.78852E-04 0.12125E-03 0.19953E-03 0.19277E-03 0.11440E-03
 0.68941E-04 0.11440E-03 0.19277E-03 0.19953E-03 0.12125E-03 0.78851E-04 0.18856E-03 0.38674E-03 0.47000E-03 0.34715E-03
 0.17799E-03 0.18768E-03 0.39515E-03 0.61965E-03 0.72041E-03 0.70576E-03 0.60697E-03 0.39957E-03 0.12666E-03 -.28235E-04
 0.68737E-04 0.29244E-03 0.37858E-03 0.25109E-03 0.11365E-03 0.19244E-03 0.48415E-03 0.79116E-03 0.73571E-03 0.54160E-03
 0.19244E-03 0.93835E-04 0.33030E-03 0.59841E-03 0.59766E-03 0.35295E-03 0.12716E-03 0.12177E-03 0.31776E-03 0.54217E-03
 0.62623E-03 0.52648E-03 0.33957E-03 0.19898E-03 0.15578E-03 0.18254E-03 0.26697E-03 0.41658E-03 0.55715E-03 0.53965E-03
 0.33089E-03 0.11662E-03 0.99202E-04 0.23641E-03 0.31121E-03 0.24503E-03 0.18565E-03 0.24503E-03 0.31121E-03 0.23641E-03
 0.99202E-04 0.11662E-03 0.33089E-03 0.53965E-03 0.55715E-03 0.41657E-03 0.26697E-03 0.18254E-03 0.15578E-03 0.19898E-03
 0.33957E-03 0.52648E-03 0.62623E-03 0.54217E-03 0.31775E-03 0.12177E-03 0.12716E-03 0.35295E-03 0.59766E-03 0.59841E-03
 0.33030E-03 0.93834E-04 0.19244E-03 0.54160E-03 0.17538E-03 0.12537E-03 0.11365E-03 0.33030E-03 0.68609E-03 0.87592E-03
 0.74582E-03 0.45804E-03 0.28554E-03 0.35353E-03 0.59283E-03 0.83077E-03 0.88974E-03 0.70129E-03 0.39130E-03 0.19071E-03
 0.21254E-03 0.37211E-03 0.54833E-03 0.71844E-03 0.86819E-03 0.89049E-03 0.71810E-03 0.49769E-03 0.46907E-03 0.67101E-03
 0.90751E-03 0.10194E-02 0.10374E-02 0.10194E-02 0.90751E-03 0.67101E-03 0.46907E-03 0.49769E-03 0.71810E-03 0.89049E-03
 0.86819E-03 0.71844E-03 0.54833E-03 0.37211E-03 0.21254E-03 0.19071E-03 0.39130E-03 0.70128E-03 0.88974E-03 0.83077E-03
 0.59283E-03 0.35353E-03 0.28554E-03 0.45804E-03 0.74582E-03 0.87592E-03 0.68609E-03 0.33030E-03 0.11365E-03 0.12537E-03
 -.65774E-04 0.11958E-04 0.25109E-03 0.59841E-03 0.87592E-03 0.90452E-03 0.69913E-03 0.46990E-03 0.41831E-03 0.57800E-03
 0.84388E-03 0.10787E-02 0.11713E-02 0.10728E-02 0.84609E-03 0.65520E-03 0.65052E-03 0.86031E-03 0.11958E-02 0.15222E-02
 0.17069E-02 0.16682E-02 0.14604E-02 0.12905E-02 0.13647E-02 0.16942E-02 0.20954E-02 0.23786E-02 0.24738E-02 0.23786E-02
 0.20954E-02 0.16942E-02 0.13647E-02 0.12905E-02 0.14604E-02 0.16682E-02 0.17069E-02 0.15222E-02 0.11958E-02 0.86031E-03
 0.65052E-03 0.65520E-03 0.84608E-03 0.10728E-02 0.11713E-02 0.10787E-02 0.84388E-03 0.57800E-03 0.41831E-03 0.46990E-03
 0.69913E-03 0.90452E-03 0.87592E-03 0.59841E-03 0.25109E-03 0.11958E-04 0.16856E-03 0.22077E-03 0.37859E-03 0.59766E-03
 0.74582E-03 0.69913E-03 0.49653E-03 0.34105E-03 0.40952E-03 0.68471E-03 0.99876E-03 0.12102E-02 0.12962E-02 0.12970E-02
 0.12492E-02 0.12142E-02 0.13181E-02 0.16747E-02 0.22364E-02 0.27616E-02 0.29876E-02 0.28620E-02 0.25980E-02 0.24900E-02
 0.26721E-02 0.30444E-02 0.34067E-02 0.36306E-02 0.37007E-02 0.36306E-02 0.34067E-02 0.30444E-02 0.26721E-02 0.24900E-02
 0.25980E-02 0.28620E-02 0.29876E-02 0.27616E-02 0.22364E-02 0.16747E-02 0.13181E-02 0.12142E-02 0.12492E-02 0.12970E-02
 0.12962E-02 0.12102E-02 0.99876E-03 0.68470E-03 0.40952E-03 0.34105E-03 0.49653E-03 0.69913E-03 0.74582E-03 0.59766E-03
 0.37858E-03 0.22077E-03 0.34591E-03 0.31764E-03 0.29244E-03 0.35295E-03 0.45804E-03 0.46990E-03 0.34105E-03 0.21541E-03
 0.29335E-03 0.61160E-03 0.99743E-03 0.12423E-02 0.12904E-02 0.12556E-02 0.13033E-02 0.15485E-02 0.20315E-02 0.27078E-02
 0.34241E-02 0.39517E-02 0.41273E-02 0.39979E-02 0.38021E-02 0.37682E-02 0.39201E-02 0.40905E-02 0.41226E-02 0.40360E-02
 0.39789E-02 0.40360E-02 0.41226E-02 0.40905E-02 0.39201E-02 0.37682E-02 0.38021E-02 0.39979E-02 0.41273E-02 0.39517E-02
 0.34241E-02 0.27078E-02 0.20315E-02 0.15485E-02 0.13033E-02 0.12556E-02 0.12904E-02 0.12423E-02 0.99743E-03 0.61160E-03
 0.29335E-03 0.21541E-03 0.34105E-03 0.46990E-03 0.45804E-03 0.35295E-03 0.29244E-03 0.31764E-03 0.14460E-03 0.10972E-03
 0.68738E-04 0.12716E-03 0.28554E-03 0.41831E-03 0.40952E-03 0.29335E-03 0.24572E-03 0.42576E-03 0.81062E-03 0.11893E-02
 0.13555E-02 0.13397E-02 0.14284E-02 0.19067E-02 0.27659E-02 0.36883E-02 0.43232E-02 0.45526E-02 0.45076E-02 0.43985E-02
 0.43658E-02 0.44264E-02 0.44738E-02 0.43469E-02 0.39883E-02 0.35663E-02 0.33762E-02 0.35663E-02 0.39883E-02 0.43469E-02
 0.44738E-02 0.44264E-02 0.43658E-02 0.43985E-02 0.45076E-02 0.45526E-02 0.43232E-02 0.36883E-02 0.27659E-02 0.19067E-02
 0.14284E-02 0.13397E-02 0.13555E-02 0.11892E-02 0.81062E-03 0.42576E-03 0.24572E-03 0.29335E-03 0.40952E-03 0.41831E-03
 0.28553E-03 0.12716E-03 0.68737E-04 0.10972E-03 -.88436E-04 -.81765E-04 -.28235E-04 0.12177E-03 0.35353E-03 0.57800E-03
 0.68471E-03 0.61160E-03 0.42576E-03 0.35240E-03 0.62688E-03 0.12320E-02 0.18506E-02 0.22019E-02 0.23944E-02 0.27968E-02
 0.35365E-02 0.42760E-02 0.45766E-02 0.43767E-02 0.40034E-02 0.37931E-02 0.38282E-02 0.39857E-02 0.40717E-02 0.39044E-02
 0.34381E-02 0.28927E-02 0.26466E-02 0.28927E-02 0.34381E-02 0.39044E-02 0.40717E-02 0.39857E-02 0.38282E-02 0.37931E-02
 0.40034E-02 0.43767E-02 0.45766E-02 0.42760E-02 0.35365E-02 0.27968E-02 0.23944E-02 0.22019E-02 0.18506E-02 0.12320E-02
 0.62688E-03 0.35240E-03 0.42576E-03 0.61160E-03 0.68470E-03 0.57800E-03 0.35353E-03 0.12177E-03 -.28236E-04 -.81765E-04
 0.64297E-04 0.65449E-04 0.12666E-03 0.31775E-03 0.59283E-03 0.84388E-03 0.99876E-03 0.99743E-03 0.81062E-03 0.62688E-03
 0.87988E-03 0.18269E-02 0.31173E-02 0.40405E-02 0.42726E-02 0.41613E-02 0.41747E-02 0.42997E-02 0.41801E-02 0.36828E-02
 0.30716E-02 0.26789E-02 0.26313E-02 0.28730E-02 0.32267E-02 0.34027E-02 0.31879E-02 0.27373E-02 0.25028E-02 0.27373E-02
 0.31879E-02 0.34027E-02 0.32267E-02 0.28730E-02 0.26313E-02 0.26789E-02 0.30716E-02 0.36828E-02 0.41801E-02 0.42997E-02
 0.41747E-02 0.41613E-02 0.42726E-02 0.40405E-02 0.31173E-02 0.18269E-02 0.87988E-03 0.62687E-03 0.81062E-03 0.99743E-03
 0.99876E-03 0.84388E-03 0.59283E-03 0.31775E-03 0.12666E-03 0.65448E-04 0.51474E-03 0.45229E-03 0.39957E-03 0.54217E-03
 0.83077E-03 0.10787E-02 0.12102E-02 0.12423E-02 0.11893E-02 0.12320E-02 0.18269E-02 0.32516E-02 0.50199E-02 0.61255E-02
 0.60350E-02 0.51943E-02 0.44012E-02 0.39425E-02 0.35655E-02 0.30544E-02 0.24955E-02 0.20800E-02 0.19642E-02 0.22845E-02
 0.29927E-02 0.36669E-02 0.38190E-02 0.34939E-02 0.32676E-02 0.34939E-02 0.38190E-02 0.36669E-02 0.29927E-02 0.22845E-02
 0.19642E-02 0.20800E-02 0.24955E-02 0.30544E-02 0.35655E-02 0.39425E-02 0.44012E-02 0.51943E-02 0.60350E-02 0.61254E-02
 0.50199E-02 0.32516E-02 0.18269E-02 0.12320E-02 0.11892E-02 0.12423E-02 0.12102E-02 0.10787E-02 0.83077E-03 0.54217E-03
 0.39957E-03 0.45229E-03 0.93676E-03 0.80851E-03 0.60697E-03 0.62623E-03 0.88974E-03 0.11713E-02 0.12962E-02 0.12904E-02
 0.13555E-02 0.18506E-02 0.31173E-02 0.50199E-02 0.67184E-02 0.72540E-02 0.64718E-02 0.51448E-02 0.41270E-02 0.36320E-02
 0.34062E-02 0.32501E-02 0.31133E-02 0.29589E-02 0.28954E-02 0.32700E-02 0.42278E-02 0.52577E-02 0.56242E-02 0.53018E-02
 0.50360E-02 0.53018E-02 0.56242E-02 0.52577E-02 0.42277E-02 0.32699E-02 0.28954E-02 0.29588E-02 0.31133E-02 0.32501E-02
 0.34061E-02 0.36320E-02 0.41270E-02 0.51448E-02 0.64718E-02 0.72540E-02 0.67184E-02 0.50199E-02 0.31173E-02 0.18506E-02
 0.13555E-02 0.12904E-02 0.12962E-02 0.11713E-02 0.88974E-03 0.62623E-03 0.60697E-03 0.80851E-03 0.12241E-02 0.10526E-02
 0.70576E-03 0.52648E-03 0.70128E-03 0.10728E-02 0.12970E-02 0.12556E-02 0.13397E-02 0.22019E-02 0.40405E-02 0.61255E-02
 0.72540E-02 0.68305E-02 0.54144E-02 0.41120E-02 0.35709E-02 0.37150E-02 0.42301E-02 0.48991E-02 0.54688E-02 0.56700E-02
 0.56357E-02 0.59595E-02 0.69543E-02 0.80498E-02 0.83844E-02 0.79452E-02 0.76138E-02 0.79452E-02 0.83844E-02 0.80498E-02
 0.69543E-02 0.59595E-02 0.56357E-02 0.56700E-02 0.54687E-02 0.48991E-02 0.42301E-02 0.37150E-02 0.35709E-02 0.41120E-02
 0.54144E-02 0.68305E-02 0.72540E-02 0.61254E-02 0.40405E-02 0.22019E-02 0.13397E-02 0.12556E-02 0.12970E-02 0.10728E-02
 0.70128E-03 0.52648E-03 0.70576E-03 0.10526E-02 0.13798E-02 0.11833E-02 0.72041E-03 0.33957E-03 0.39130E-03 0.84609E-03
 0.12492E-02 0.13033E-02 0.14284E-02 0.23944E-02 0.42726E-02 0.60350E-02 0.64718E-02 0.54144E-02 0.38498E-02 0.29286E-02
 0.31268E-02 0.42978E-02 0.60740E-02 0.79413E-02 0.92381E-02 0.95852E-02 0.93774E-02 0.94814E-02 0.10250E-01 0.11071E-01
 0.11149E-01 0.10562E-01 0.10191E-01 0.10562E-01 0.11149E-01 0.11071E-01 0.10250E-01 0.94814E-02 0.93774E-02 0.95852E-02
 0.92381E-02 0.79413E-02 0.60740E-02 0.42978E-02 0.31268E-02 0.29286E-02 0.38498E-02 0.54144E-02 0.64718E-02 0.60350E-02
 0.42726E-02 0.23944E-02 0.14284E-02 0.13033E-02 0.12492E-02 0.84608E-03 0.39130E-03 0.33957E-03 0.72041E-03 0.11833E-02
 0.12600E-02 0.10759E-02 0.61965E-03 0.19898E-03 0.19071E-03 0.65520E-03 0.12142E-02 0.15485E-02 0.19067E-02 0.27968E-02
 0.41613E-02 0.51943E-02 0.51448E-02 0.41120E-02 0.29286E-02 0.24778E-02 0.32761E-02 0.54097E-02 0.84239E-02 0.11291E-01
 0.12943E-01 0.13130E-01 0.12635E-01 0.12442E-01 0.12765E-01 0.13025E-01 0.12702E-01 0.12012E-01 0.11656E-01 0.12012E-01
 0.12702E-01 0.13025E-01 0.12765E-01 0.12442E-01 0.12635E-01 0.13130E-01 0.12943E-01 0.11291E-01 0.84239E-02 0.54097E-02
 0.32761E-02 0.24778E-02 0.29286E-02 0.41120E-02 0.51448E-02 0.51943E-02 0.41613E-02 0.27968E-02 0.19067E-02 0.15485E-02
 0.12142E-02 0.65520E-03 0.19071E-03 0.19897E-03 0.61965E-03 0.10759E-02 0.79786E-03 0.67930E-03 0.39515E-03 0.15578E-03
 0.21254E-03 0.65052E-03 0.13181E-02 0.20315E-02 0.27659E-02 0.35365E-02 0.41747E-02 0.44012E-02 0.41270E-02 0.35709E-02
 0.31268E-02 0.32761E-02 0.45409E-02 0.71444E-02 0.10519E-01 0.13402E-01 0.14776E-01 0.14718E-01 0.14164E-01 0.13858E-01
 0.13756E-01 0.13422E-01 0.12722E-01 0.11992E-01 0.11684E-01 0.11992E-01 0.12722E-01 0.13422E-01 0.13756E-01 0.13858E-01
 0.14164E-01 0.14718E-01 0.14776E-01 0.13402E-01 0.10519E-01 0.71444E-02 0.45409E-02 0.32761E-02 0.31268E-02 0.35709E-02
 0.41270E-02 0.44012E-02 0.41747E-02 0.35365E-02 0.27659E-02 0.20315E-02 0.13181E-02 0.65052E-03 0.21253E-03 0.15578E-03
 0.39515E-03 0.67930E-03 0.29677E-03 0.25982E-03 0.18768E-03 0.18254E-03 0.37211E-03 0.86031E-03 0.16747E-02 0.27078E-02
 0.36883E-02 0.42760E-02 0.42997E-02 0.39425E-02 0.36320E-02 0.37150E-02 0.42978E-02 0.54097E-02 0.71444E-02 0.94477E-02
 0.11829E-01 0.13561E-01 0.14295E-01 0.14360E-01 0.14312E-01 0.14299E-01 0.14030E-01 0.13299E-01 0.12317E-01 0.11517E-01
 0.11218E-01 0.11517E-01 0.12317E-01 0.13299E-01 0.14030E-01 0.14299E-01 0.14312E-01 0.14360E-01 0.14295E-01 0.13561E-01
 0.11829E-01 0.94477E-02 0.71444E-02 0.54097E-02 0.42978E-02 0.37150E-02 0.36320E-02 0.39425E-02 0.42997E-02 0.42760E-02
 0.36883E-02 0.27078E-02 0.16747E-02 0.86031E-03 0.37211E-03 0.18254E-03 0.18768E-03 0.25982E-03 0.13150E-03 0.14440E-03
 0.17799E-03 0.26697E-03 0.54833E-03 0.11958E-02 0.22364E-02 0.34241E-02 0.43232E-02 0.45766E-02 0.41801E-02 0.35655E-02
 0.34062E-02 0.42301E-02 0.60740E-02 0.84239E-02 0.10519E-01 0.11829E-01 0.12380E-01 0.12678E-01 0.13286E-01 0.14360E-01
 0.15503E-01 0.16069E-01 0.15662E-01 0.14430E-01 0.12932E-01 0.11774E-01 0.11348E-01 0.11774E-01 0.12932E-01 0.14430E-01
 0.15662E-01 0.16069E-01 0.15503E-01 0.14360E-01 0.13286E-01 0.12678E-01 0.12380E-01 0.11829E-01 0.10519E-01 0.84239E-02
 0.60740E-02 0.42301E-02 0.34061E-02 0.35655E-02 0.41801E-02 0.45766E-02 0.43232E-02 0.34241E-02 0.22364E-02 0.11958E-02
 0.54833E-03 0.26697E-03 0.17799E-03 0.14440E-03 0.25398E-03 0.29059E-03 0.34715E-03 0.41658E-03 0.71844E-03 0.15222E-02
 0.27616E-02 0.39517E-02 0.45526E-02 0.43767E-02 0.36828E-02 0.30544E-02 0.32501E-02 0.48991E-02 0.79413E-02 0.11291E-01
 0.13402E-01 0.13561E-01 0.12678E-01 0.12601E-01 0.14460E-01 0.17659E-01 0.20436E-01 0.21307E-01 0.20017E-01 0.17387E-01
 0.14581E-01 0.12537E-01 0.11799E-01 0.12537E-01 0.14581E-01 0.17387E-01 0.20017E-01 0.21307E-01 0.20436E-01 0.17659E-01
 0.14460E-01 0.12601E-01 0.12678E-01 0.13561E-01 0.13402E-01 0.11291E-01 0.79413E-02 0.48991E-02 0.32501E-02 0.30544E-02
 0.36828E-02 0.43767E-02 0.45526E-02 0.39517E-02 0.27616E-02 0.15222E-02 0.71844E-03 0.41657E-03 0.34714E-03 0.29059E-03
 0.32180E-03 0.37796E-03 0.47000E-03 0.55715E-03 0.86819E-03 0.17069E-02 0.29876E-02 0.41273E-02 0.45076E-02 0.40034E-02
 0.30716E-02 0.24955E-02 0.31133E-02 0.54688E-02 0.92381E-02 0.12943E-01 0.14776E-01 0.14295E-01 0.13286E-01 0.14460E-01
 0.18904E-01 0.24840E-01 0.28995E-01 0.29194E-01 0.25701E-01 0.20483E-01 0.15621E-01 0.12388E-01 0.11276E-01 0.12388E-01
 0.15621E-01 0.20483E-01 0.25701E-01 0.29194E-01 0.28995E-01 0.24840E-01 0.18904E-01 0.14460E-01 0.13286E-01 0.14295E-01
 0.14776E-01 0.12943E-01 0.92381E-02 0.54687E-02 0.31133E-02 0.24955E-02 0.30716E-02 0.40034E-02 0.45076E-02 0.41273E-02
 0.29876E-02 0.17069E-02 0.86819E-03 0.55715E-03 0.47000E-03 0.37796E-03 0.23937E-03 0.28409E-03 0.38674E-03 0.53965E-03
 0.89049E-03 0.16682E-02 0.28620E-02 0.39979E-02 0.43985E-02 0.37931E-02 0.26789E-02 0.20800E-02 0.29589E-02 0.56700E-02
 0.95852E-02 0.13130E-01 0.14718E-01 0.14360E-01 0.14360E-01 0.17659E-01 0.24840E-01 0.32863E-01 0.37217E-01 0.35516E-01
 0.29051E-01 0.21217E-01 0.14881E-01 0.11164E-01 0.99886E-02 0.11164E-01 0.14881E-01 0.21217E-01 0.29051E-01 0.35516E-01
 0.37217E-01 0.32863E-01 0.24840E-01 0.17659E-01 0.14360E-01 0.14360E-01 0.14718E-01 0.13130E-01 0.95852E-02 0.56700E-02
 0.29588E-02 0.20800E-02 0.26789E-02 0.37931E-02 0.43985E-02 0.39979E-02 0.28620E-02 0.16682E-02 0.89049E-03 0.53965E-03
 0.38674E-03 0.28409E-03 0.22024E-03 0.19430E-03 0.18856E-03 0.33089E-03 0.71810E-03 0.14604E-02 0.25980E-02 0.38021E-02
 0.43658E-02 0.38282E-02 0.26313E-02 0.19642E-02 0.28954E-02 0.56357E-02 0.93774E-02 0.12635E-01 0.14164E-01 0.14312E-01
 0.15503E-01 0.20436E-01 0.28995E-01 0.37217E-01 0.40139E-01 0.36008E-01 0.27583E-01 0.19442E-01 0.14418E-01 0.12445E-01
 0.12049E-01 0.12445E-01 0.14418E-01 0.19442E-01 0.27583E-01 0.36008E-01 0.40139E-01 0.37217E-01 0.28995E-01 0.20436E-01
 0.15503E-01 0.14312E-01 0.14164E-01 0.12635E-01 0.93774E-02 0.56357E-02 0.28954E-02 0.19642E-02 0.26313E-02 0.38282E-02
 0.43658E-02 0.38021E-02 0.25980E-02 0.14604E-02 0.71810E-03 0.33089E-03 0.18856E-03 0.19430E-03 0.33672E-03 0.23696E-03
 0.78852E-04 0.11662E-03 0.49769E-03 0.12905E-02 0.24900E-02 0.37682E-02 0.44264E-02 0.39857E-02 0.28730E-02 0.22845E-02
 0.32700E-02 0.59595E-02 0.94814E-02 0.12442E-01 0.13858E-01 0.14299E-01 0.16069E-01 0.21307E-01 0.29194E-01 0.35516E-01
 0.36008E-01 0.30462E-01 0.23182E-01 0.19194E-01 0.20085E-01 0.23309E-01 0.24977E-01 0.23309E-01 0.20085E-01 0.19194E-01
 0.23182E-01 0.30462E-01 0.36008E-01 0.35516E-01 0.29194E-01 0.21307E-01 0.16069E-01 0.14299E-01 0.13858E-01 0.12442E-01
 0.94814E-02 0.59595E-02 0.32699E-02 0.22845E-02 0.28730E-02 0.39857E-02 0.44264E-02 0.37682E-02 0.24900E-02 0.12905E-02
 0.49769E-03 0.11661E-03 0.78851E-04 0.23695E-03 0.38749E-03 0.29558E-03 0.12125E-03 0.99202E-04 0.46907E-03 0.13647E-02
 0.26721E-02 0.39201E-02 0.44738E-02 0.40717E-02 0.32267E-02 0.29927E-02 0.42278E-02 0.69543E-02 0.10250E-01 0.12765E-01
 0.13756E-01 0.14030E-01 0.15662E-01 0.20017E-01 0.25701E-01 0.29051E-01 0.27583E-01 0.23182E-01 0.21368E-01 0.26698E-01
 0.38435E-01 0.50456E-01 0.55520E-01 0.50456E-01 0.38435E-01 0.26698E-01 0.21368E-01 0.23182E-01 0.27583E-01 0.29051E-01
 0.25701E-01 0.20017E-01 0.15662E-01 0.14030E-01 0.13756E-01 0.12765E-01 0.10250E-01 0.69543E-02 0.42277E-02 0.29927E-02
 0.32267E-02 0.40717E-02 0.44738E-02 0.39201E-02 0.26721E-02 0.13647E-02 0.46907E-03 0.99201E-04 0.12125E-03 0.29558E-03
 0.28526E-03 0.26046E-03 0.19953E-03 0.23641E-03 0.67101E-03 0.16942E-02 0.30444E-02 0.40905E-02 0.43469E-02 0.39044E-02
 0.34027E-02 0.36669E-02 0.52577E-02 0.80498E-02 0.11071E-01 0.13025E-01 0.13422E-01 0.13299E-01 0.14430E-01 0.17387E-01
 0.20483E-01 0.21217E-01 0.19442E-01 0.19194E-01 0.26698E-01 0.45317E-01 0.71333E-01 0.94504E-01 0.10380     0.94504E-01
 0.71333E-01 0.45317E-01 0.26698E-01 0.19194E-01 0.19442E-01 0.21217E-01 0.20483E-01 0.17387E-01 0.14430E-01 0.13299E-01
 0.13422E-01 0.13025E-01 0.11071E-01 0.80498E-02 0.52577E-02 0.36669E-02 0.34027E-02 0.39044E-02 0.43469E-02 0.40905E-02
 0.30444E-02 0.16942E-02 0.67101E-03 0.23641E-03 0.19953E-03 0.26046E-03 0.22580E-03 0.21562E-03 0.19277E-03 0.31121E-03
 0.90751E-03 0.20954E-02 0.34067E-02 0.41226E-02 0.39883E-02 0.34381E-02 0.31879E-02 0.38190E-02 0.56242E-02 0.83844E-02
 0.11149E-01 0.12702E-01 0.12722E-01 0.12317E-01 0.12932E-01 0.14581E-01 0.15621E-01 0.14881E-01 0.14418E-01 0.20085E-01
 0.38435E-01 0.71333E-01 0.11200     0.14628     0.15974     0.14628     0.11200     0.71333E-01 0.38435E-01 0.20085E-01
 0.14418E-01 0.14881E-01 0.15621E-01 0.14581E-01 0.12932E-01 0.12317E-01 0.12722E-01 0.12702E-01 0.11149E-01 0.83844E-02
 0.56242E-02 0.38190E-02 0.31879E-02 0.34381E-02 0.39883E-02 0.41226E-02 0.34067E-02 0.20954E-02 0.90751E-03 0.31121E-03
 0.19277E-03 0.21562E-03 0.32823E-03 0.25005E-03 0.11440E-03 0.24503E-03 0.10194E-02 0.23786E-02 0.36306E-02 0.40360E-02
 0.35663E-02 0.28927E-02 0.27373E-02 0.34939E-02 0.53018E-02 0.79452E-02 0.10562E-01 0.12012E-01 0.11992E-01 0.11517E-01
 0.11774E-01 0.12537E-01 0.12388E-01 0.11164E-01 0.12445E-01 0.23309E-01 0.50456E-01 0.94504E-01 0.14628     0.18880    
 0.20531     0.18880     0.14628     0.94504E-01 0.50456E-01 0.23309E-01 0.12445E-01 0.11164E-01 0.12388E-01 0.12537E-01
 0.11774E-01 0.11517E-01 0.11992E-01 0.12012E-01 0.10562E-01 0.79452E-02 0.53018E-02 0.34939E-02 0.27373E-02 0.28927E-02
 0.35663E-02 0.40360E-02 0.36306E-02 0.23786E-02 0.10194E-02 0.24503E-03 0.11440E-03 0.25005E-03 0.41318E-03 0.28767E-03
 0.68941E-04 0.18565E-03 0.10374E-02 0.24738E-02 0.37007E-02 0.39789E-02 0.33762E-02 0.26466E-02 0.25028E-02 0.32676E-02
 0.50360E-02 0.76138E-02 0.10191E-01 0.11656E-01 0.11684E-01 0.11218E-01 0.11348E-01 0.11799E-01 0.11276E-01 0.99886E-02
 0.12049E-01 0.24977E-01 0.55520E-01 0.10380     0.15974     0.20531     0.22294     0.20531     0.15974     0.10380    
 0.55520E-01 0.24977E-01 0.12049E-01 0.99886E-02 0.11276E-01 0.11799E-01 0.11348E-01 0.11218E-01 0.11684E-01 0.11656E-01
 0.10191E-01 0.76138E-02 0.50360E-02 0.32676E-02 0.25028E-02 0.26466E-02 0.33762E-02 0.39789E-02 0.37007E-02 0.24738E-02
 0.10374E-02 0.18564E-03 0.68941E-04 0.28767E-03 0.32824E-03 0.25005E-03 0.11440E-03 0.24503E-03 0.10194E-02 0.23786E-02
 0.36306E-02 0.40360E-02 0.35663E-02 0.28927E-02 0.27373E-02 0.34939E-02 0.53018E-02 0.79452E-02 0.10562E-01 0.12012E-01
 0.11992E-01 0.11517E-01 0.11774E-01 0.12537E-01 0.12388E-01 0.11164E-01 0.12445E-01 0.23309E-01 0.50456E-01 0.94504E-01
 0.14628     0.18880     0.20531     0.18880     0.14628     0.94504E-01 0.50456E-01 0.23309E-01 0.12445E-01 0.11164E-01
 0.12388E-01 0.12537E-01 0.11774E-01 0.11517E-01 0.11992E-01 0.12012E-01 0.10562E-01 0.79452E-02 0.53018E-02 0.34939E-02
 0.27373E-02 0.28927E-02 0.35663E-02 0.40360E-02 0.36306E-02 0.23786E-02 0.10194E-02 0.24503E-03 0.11440E-03 0.25005E-03
 0.22580E-03 0.21562E-03 0.19277E-03 0.31122E-03 0.90751E-03 0.20954E-02 0.34067E-02 0.41226E-02 0.39883E-02 0.34381E-02
 0.31879E-02 0.38190E-02 0.56242E-02 0.83844E-02 0.11149E-01 0.12702E-01 0.12722E-01 0.12317E-01 0.12932E-01 0.14581E-01
 0.15621E-01 0.14881E-01 0.14418E-01 0.20085E-01 0.38435E-01 0.71333E-01 0.11200     0.14628     0.15974     0.14628    
 0.11200     0.71333E-01 0.38435E-01 0.20085E-01 0.14418E-01 0.14881E-01 0.15621E-01 0.14581E-01 0.12932E-01 0.12317E-01
 0.12722E-01 0.12702E-01 0.11149E-01 0.83844E-02 0.56242E-02 0.38190E-02 0.31879E-02 0.34381E-02 0.39883E-02 0.41226E-02
 0.34067E-02 0.20954E-02 0.90751E-03 0.31121E-03 0.19277E-03 0.21562E-03 0.28526E-03 0.26046E-03 0.19953E-03 0.23641E-03
 0.67101E-03 0.16942E-02 0.30444E-02 0.40905E-02 0.43469E-02 0.39044E-02 0.34027E-02 0.36669E-02 0.52577E-02 0.80498E-02
 0.11071E-01 0.13025E-01 0.13422E-01 0.13299E-01 0.14430E-01 0.17387E-01 0.20483E-01 0.21217E-01 0.19442E-01 0.19194E-01
 0.26698E-01 0.45317E-01 0.71333E-01 0.94504E-01 0.10380     0.94504E-01 0.71333E-01 0.45317E-01 0.26698E-01 0.19194E-01
 0.19442E-01 0.21217E-01 0.20483E-01 0.17387E-01 0.14430E-01 0.13299E-01 0.13422E-01 0.13025E-01 0.11071E-01 0.80498E-02
 0.52577E-02 0.36669E-02 0.34027E-02 0.39044E-02 0.43469E-02 0.40905E-02 0.30444E-02 0.16942E-02 0.67101E-03 0.23641E-03
 0.19953E-03 0.26046E-03 0.38749E-03 0.29558E-03 0.12125E-03 0.99202E-04 0.46907E-03 0.13647E-02 0.26721E-02 0.39201E-02
 0.44738E-02 0.40717E-02 0.32267E-02 0.29927E-02 0.42278E-02 0.69543E-02 0.10250E-01 0.12765E-01 0.13756E-01 0.14030E-01
 0.15662E-01 0.20017E-01 0.25701E-01 0.29051E-01 0.27583E-01 0.23182E-01 0.21368E-01 0.26698E-01 0.38435E-01 0.50456E-01
 0.55520E-01 0.50456E-01 0.38435E-01 0.26698E-01 0.21368E-01 0.23182E-01 0.27583E-01 0.29051E-01 0.25701E-01 0.20017E-01
 0.15662E-01 0.14030E-01 0.13756E-01 0.12765E-01 0.10250E-01 0.69543E-02 0.42278E-02 0.29927E-02 0.32267E-02 0.40717E-02
 0.44738E-02 0.39201E-02 0.26721E-02 0.13647E-02 0.46907E-03 0.99202E-04 0.12125E-03 0.29558E-03 0.33672E-03 0.23696E-03
 0.78852E-04 0.11662E-03 0.49769E-03 0.12905E-02 0.24900E-02 0.37682E-02 0.44264E-02 0.39857E-02 0.28730E-02 0.22845E-02
 0.32700E-02 0.59595E-02 0.94814E-02 0.12442E-01 0.13858E-01 0.14299E-01 0.16069E-01 0.21307E-01 0.29194E-01 0.35516E-01
 0.36008E-01 0.30462E-01 0.23182E-01 0.19194E-01 0.20085E-01 0.23309E-01 0.24977E-01 0.23309E-01 0.20085E-01 0.19194E-01
 0.23182E-01 0.30462E-01 0.36008E-01 0.35516E-01 0.29194E-01 0.21307E-01 0.16069E-01 0.14299E-01 0.13858E-01 0.12442E-01
 0.94814E-02 0.59595E-02 0.32699E-02 0.22845E-02 0.28730E-02 0.39857E-02 0.44264E-02 0.37682E-02 0.24900E-02 0.12905E-02
 0.49769E-03 0.11662E-03 0.78853E-04 0.23696E-03 0.22024E-03 0.19430E-03 0.18856E-03 0.33089E-03 0.71810E-03 0.14604E-02
 0.25980E-02 0.38021E-02 0.43658E-02 0.38282E-02 0.26313E-02 0.19642E-02 0.28954E-02 0.56357E-02 0.93774E-02 0.12635E-01
 0.14164E-01 0.14312E-01 0.15503E-01 0.20436E-01 0.28995E-01 0.37217E-01 0.40139E-01 0.36008E-01 0.27583E-01 0.19442E-01
 0.14418E-01 0.12445E-01 0.12049E-01 0.12445E-01 0.14418E-01 0.19442E-01 0.27583E-01 0.36008E-01 0.40139E-01 0.37217E-01
 0.28995E-01 0.20436E-01 0.15503E-01 0.14312E-01 0.14164E-01 0.12635E-01 0.93774E-02 0.56357E-02 0.28954E-02 0.19642E-02
 0.26313E-02 0.38282E-02 0.43658E-02 0.38021E-02 0.25980E-02 0.14604E-02 0.71810E-03 0.33089E-03 0.18856E-03 0.19430E-03
 0.23937E-03 0.28409E-03 0.38674E-03 0.53965E-03 0.89049E-03 0.16682E-02 0.28620E-02 0.39979E-02 0.43985E-02 0.37931E-02
 0.26789E-02 0.20800E-02 0.29589E-02 0.56700E-02 0.95852E-02 0.13130E-01 0.14718E-01 0.14360E-01 0.14360E-01 0.17659E-01
 0.24840E-01 0.32863E-01 0.37217E-01 0.35516E-01 0.29051E-01 0.21217E-01 0.14881E-01 0.11164E-01 0.99886E-02 0.11164E-01
 0.14881E-01 0.21217E-01 0.29051E-01 0.35516E-01 0.37217E-01 0.32863E-01 0.24840E-01 0.17659E-01 0.14360E-01 0.14360E-01
 0.14718E-01 0.13130E-01 0.95852E-02 0.56700E-02 0.29589E-02 0.20800E-02 0.26789E-02 0.37931E-02 0.43985E-02 0.39979E-02
 0.28620E-02 0.16682E-02 0.89049E-03 0.53965E-03 0.38674E-03 0.28409E-03 0.32180E-03 0.37796E-03 0.47000E-03 0.55715E-03
 0.86819E-03 0.17069E-02 0.29876E-02 0.41273E-02 0.45076E-02 0.40034E-02 0.30716E-02 0.24955E-02 0.31133E-02 0.54688E-02
 0.92381E-02 0.12943E-01 0.14776E-01 0.14295E-01 0.13286E-01 0.14460E-01 0.18904E-01 0.24840E-01 0.28995E-01 0.29194E-01
 0.25701E-01 0.20483E-01 0.15621E-01 0.12388E-01 0.11276E-01 0.12388E-01 0.15621E-01 0.20483E-01 0.25701E-01 0.29194E-01
 0.28995E-01 0.24840E-01 0.18904E-01 0.14460E-01 0.13286E-01 0.14295E-01 0.14776E-01 0.12943E-01 0.92381E-02 0.54688E-02
 0.31133E-02 0.24955E-02 0.30716E-02 0.40034E-02 0.45076E-02 0.41273E-02 0.29876E-02 0.17069E-02 0.86819E-03 0.55715E-03
 0.47000E-03 0.37796E-03 0.25399E-03 0.29059E-03 0.34715E-03 0.41658E-03 0.71844E-03 0.15222E-02 0.27616E-02 0.39517E-02
 0.45526E-02 0.43767E-02 0.36828E-02 0.30544E-02 0.32501E-02 0.48991E-02 0.79413E-02 0.11291E-01 0.13402E-01 0.13561E-01
 0.12678E-01 0.12601E-01 0.14460E-01 0.17659E-01 0.20436E-01 0.21307E-01 0.20017E-01 0.17387E-01 0.14581E-01 0.12537E-01
 0.11799E-01 0.12537E-01 0.14581E-01 0.17387E-01 0.20017E-01 0.21307E-01 0.20436E-01 0.17659E-01 0.14460E-01 0.12601E-01
 0.12678E-01 0.13561E-01 0.13402E-01 0.11291E-01 0.79413E-02 0.48991E-02 0.32501E-02 0.30544E-02 0.36828E-02 0.43767E-02
 0.45526E-02 0.39517E-02 0.27616E-02 0.15222E-02 0.71844E-03 0.41658E-03 0.34715E-03 0.29059E-03 0.13150E-03 0.14441E-03
 0.17799E-03 0.26697E-03 0.54833E-03 0.11958E-02 0.22364E-02 0.34241E-02 0.43232E-02 0.45766E-02 0.41801E-02 0.35655E-02
 0.34061E-02 0.42301E-02 0.60740E-02 0.84239E-02 0.10519E-01 0.11829E-01 0.12380E-01 0.12678E-01 0.13286E-01 0.14360E-01
 0.15503E-01 0.16069E-01 0.15662E-01 0.14430E-01 0.12932E-01 0.11774E-01 0.11348E-01 0.11774E-01 0.12932E-01 0.14430E-01
 0.15662E-01 0.16069E-01 0.15503E-01 0.14360E-01 0.13286E-01 0.12678E-01 0.12380E-01 0.11829E-01 0.10519E-01 0.84239E-02
 0.60740E-02 0.42301E-02 0.34061E-02 0.35655E-02 0.41801E-02 0.45766E-02 0.43232E-02 0.34241E-02 0.22364E-02 0.11958E-02
 0.54833E-03 0.26697E-03 0.17799E-03 0.14441E-03 0.29677E-03 0.25982E-03 0.18768E-03 0.18254E-03 0.37211E-03 0.86031E-03
 0.16747E-02 0.27078E-02 0.36883E-02 0.42760E-02 0.42997E-02 0.39425E-02 0.36320E-02 0.37150E-02 0.42978E-02 0.54097E-02
 0.71444E-02 0.94477E-02 0.11829E-01 0.13561E-01 0.14295E-01 0.14360E-01 0.14312E-01 0.14299E-01 0.14030E-01 0.13299E-01
 0.12317E-01 0.11517E-01 0.11218E-01 0.11517E-01 0.12317E-01 0.13299E-01 0.14030E-01 0.14299E-01 0.14312E-01 0.14360E-01
 0.14295E-01 0.13561E-01 0.11829E-01 0.94477E-02 0.71444E-02 0.54097E-02 0.42978E-02 0.37150E-02 0.36320E-02 0.39425E-02
 0.42997E-02 0.42760E-02 0.36883E-02 0.27078E-02 0.16747E-02 0.86031E-03 0.37211E-03 0.18254E-03 0.18768E-03 0.25982E-03
 0.79786E-03 0.67930E-03 0.39515E-03 0.15578E-03 0.21254E-03 0.65052E-03 0.13181E-02 0.20315E-02 0.27659E-02 0.35365E-02
 0.41747E-02 0.44012E-02 0.41270E-02 0.35709E-02 0.31268E-02 0.32761E-02 0.45409E-02 0.71444E-02 0.10519E-01 0.13402E-01
 0.14776E-01 0.14718E-01 0.14164E-01 0.13858E-01 0.13756E-01 0.13422E-01 0.12722E-01 0.11992E-01 0.11684E-01 0.11992E-01
 0.12722E-01 0.13422E-01 0.13756E-01 0.13858E-01 0.14164E-01 0.14718E-01 0.14776E-01 0.13402E-01 0.10519E-01 0.71444E-02
 0.45409E-02 0.32761E-02 0.31268E-02 0.35709E-02 0.41270E-02 0.44012E-02 0.41747E-02 0.35365E-02 0.27659E-02 0.20315E-02
 0.13181E-02 0.65052E-03 0.21254E-03 0.15578E-03 0.39515E-03 0.67930E-03 0.12600E-02 0.10759E-02 0.61966E-03 0.19898E-03
 0.19071E-03 0.65520E-03 0.12142E-02 0.15485E-02 0.19067E-02 0.27968E-02 0.41613E-02 0.51943E-02 0.51448E-02 0.41120E-02
 0.29286E-02 0.24778E-02 0.32761E-02 0.54097E-02 0.84239E-02 0.11291E-01 0.12943E-01 0.13130E-01 0.12635E-01 0.12442E-01
 0.12765E-01 0.13025E-01 0.12702E-01 0.12012E-01 0.11656E-01 0.12012E-01 0.12702E-01 0.13025E-01 0.12765E-01 0.12442E-01
 0.12635E-01 0.13130E-01 0.12943E-01 0.11291E-01 0.84239E-02 0.54097E-02 0.32761E-02 0.24778E-02 0.29286E-02 0.41120E-02
 0.51448E-02 0.51943E-02 0.41613E-02 0.27968E-02 0.19067E-02 0.15485E-02 0.12142E-02 0.65520E-03 0.19071E-03 0.19898E-03
 0.61966E-03 0.10759E-02 0.13798E-02 0.11833E-02 0.72041E-03 0.33957E-03 0.39130E-03 0.84609E-03 0.12492E-02 0.13033E-02
 0.14284E-02 0.23944E-02 0.42726E-02 0.60350E-02 0.64718E-02 0.54144E-02 0.38498E-02 0.29286E-02 0.31268E-02 0.42978E-02
 0.60740E-02 0.79413E-02 0.92381E-02 0.95852E-02 0.93774E-02 0.94814E-02 0.10250E-01 0.11071E-01 0.11149E-01 0.10562E-01
 0.10191E-01 0.10562E-01 0.11149E-01 0.11071E-01 0.10250E-01 0.94814E-02 0.93774E-02 0.95852E-02 0.92381E-02 0.79413E-02
 0.60740E-02 0.42978E-02 0.31268E-02 0.29286E-02 0.38498E-02 0.54144E-02 0.64718E-02 0.60350E-02 0.42726E-02 0.23944E-02
 0.14284E-02 0.13033E-02 0.12492E-02 0.84609E-03 0.39130E-03 0.33957E-03 0.72041E-03 0.11833E-02 0.12241E-02 0.10526E-02
 0.70577E-03 0.52648E-03 0.70129E-03 0.10728E-02 0.12970E-02 0.12556E-02 0.13397E-02 0.22019E-02 0.40405E-02 0.61255E-02
 0.72540E-02 0.68305E-02 0.54144E-02 0.41120E-02 0.35709E-02 0.37150E-02 0.42301E-02 0.48991E-02 0.54688E-02 0.56700E-02
 0.56357E-02 0.59595E-02 0.69543E-02 0.80498E-02 0.83844E-02 0.79452E-02 0.76138E-02 0.79452E-02 0.83844E-02 0.80498E-02