Screening bandgap                       
   1.00000000000000     
     6.350000    0.000000    0.000000
     0.000000    6.350000    0.000000
     0.000000    0.000000    6.350000
   C    H 
     1     4
Direct
  0.500000  0.500000  0.500000
  0.400987  0.400987  0.400987
  0.599013  0.599013  0.400987
  0.400987  0.599013  0.599013
  0.599013  0.400987  0.599013
 
   56   56   56
 0.27505955666E-03 0.54943826238E-03 0.91777478050E-03 0.73571290016E-03 0.17537528075E-03
 -.65773854578E-04 0.16855941142E-03 0.34591276252E-03 0.14459717680E-03 -.88434538421E-04
 0.64298229111E-04 0.51473692437E-03 0.93675908807E-03 0.12240954818E-02 0.13798354411E-02
 0.12599810042E-02 0.79786374158E-03 0.29677409660E-03 0.13150224270E-03 0.25398612142E-03
 0.32179911747E-03 0.23937184664E-03 0.22023666553E-03 0.33672081840E-03 0.38749443578E-03
 0.28525955299E-03 0.22580160295E-03 0.32823535115E-03 0.41317942218E-03 0.32823517303E-03
 0.22580127578E-03 0.28525912043E-03 0.38749393185E-03 0.33672024966E-03 0.22023601791E-03
 0.23937110867E-03 0.32179829675E-03 0.25398524093E-03 0.13150132870E-03 0.29677317392E-03
 0.79786283452E-03 0.12599801359E-02 0.13798346320E-02 0.12240947480E-02 0.93675843125E-03
 0.51473631872E-03 0.64297628204E-04 -.88435164227E-04 0.14459654798E-03 0.34591219260E-03
 0.16855895309E-03 -.65774190643E-04 0.17537504846E-03 0.73571275200E-03 0.91777470109E-03
 0.54943823182E-03 0.54943830349E-03 0.67788039120E-03 0.79116138762E-03 0.54159859924E-03
 0.12536901172E-03 0.11958630102E-04 0.22076609102E-03 0.31764568505E-03 0.10971899119E-03
 -.81764053263E-04 0.65449451051E-04 0.45229396358E-03 0.80851220322E-03 0.10525527964E-02
 0.11832872860E-02 0.10758626075E-02 0.67929864866E-03 0.25981762526E-03 0.14440550218E-03
 0.29058768997E-03 0.37796361057E-03 0.28408992578E-03 0.19430254121E-03 0.23695595410E-03
 0.29557784906E-03 0.26045611316E-03 0.21562318802E-03 0.25005495024E-03 0.28767186789E-03
 0.25005490084E-03 0.21562303254E-03 0.26045578495E-03 0.29557731683E-03 0.23695523057E-03
 0.19430166333E-03 0.28408893589E-03 0.37796255003E-03 0.29058659711E-03 0.14440441040E-03
 0.25981656432E-03 0.67929764850E-03 0.10758616974E-02 0.11832864841E-02 0.10525520915E-02
 0.80851154151E-03 0.45229326112E-03 0.65448642695E-04 -.81764957305E-04 0.10971808342E-03
 0.31764488054E-03 0.22076542961E-03 0.11958070645E-04 0.12536849753E-03 0.54159812741E-03
 0.79116101391E-03 0.67788018399E-03 0.91777477081E-03 0.79116139405E-03 0.48414614151E-03
 0.19244480435E-03 0.11364844337E-03 0.25108959990E-03 0.37858557696E-03 0.29244106329E-03
 0.68738573000E-04 -.28234288314E-04 0.12665766743E-03 0.39956748387E-03 0.60697365914E-03
 0.70576552503E-03 0.72040986744E-03 0.61965538677E-03 0.39515030890E-03 0.18767837024E-03
 0.17798711007E-03 0.34714658547E-03 0.46999981860E-03 0.38674019918E-03 0.18856086464E-03
 0.78852344464E-04 0.12125032293E-03 0.19953198585E-03 0.19277192474E-03 0.11439781558E-03
 0.68941116440E-04 0.11439778211E-03 0.19277177040E-03 0.19953161109E-03 0.12124969080E-03
 0.78851491070E-04 0.18855985444E-03 0.38673908171E-03 0.46999862138E-03 0.34714533202E-03
 0.17798583532E-03 0.18767712304E-03 0.39514914478E-03 0.61965435346E-03 0.72040898231E-03
 0.70576475134E-03 0.60697290176E-03 0.39956662725E-03 0.12665664889E-03 -.28235421767E-04
 0.68737460771E-04 0.29244009876E-03 0.37858478257E-03 0.25108889449E-03 0.11364773780E-03
 0.19244409972E-03 0.48414554376E-03 0.79116104680E-03 0.73571277727E-03 0.54159856149E-03
 0.19244478947E-03 0.93834871437E-04 0.33030347311E-03 0.59841074083E-03 0.59766341974E-03
 0.35294642163E-03 0.12716088334E-03 0.12177262231E-03 0.31775529701E-03 0.54217122219E-03
 0.62623268110E-03 0.52647774896E-03 0.33957130602E-03 0.19897643275E-03 0.15578105365E-03
 0.18254436467E-03 0.26696967860E-03 0.41657588978E-03 0.55715034254E-03 0.53965209352E-03
 0.33089046897E-03 0.11661597622E-03 0.99202336865E-04 0.23641258786E-03 0.31121492170E-03
 0.24503016213E-03 0.18564517224E-03 0.24503001581E-03 0.31121458563E-03 0.23641203197E-03
 0.99201589828E-04 0.11661510660E-03 0.33088952475E-03 0.53965106474E-03 0.55714918363E-03
 0.41657457435E-03 0.26696823754E-03 0.18254288203E-03 0.15577963024E-03 0.19897514282E-03
 0.33957016670E-03 0.52647671266E-03 0.62623165514E-03 0.54217011615E-03 0.31775408183E-03
 0.12177136333E-03 0.12715970937E-03 0.35294543678E-03 0.59766262492E-03 0.59841003828E-03
 0.33030275797E-03 0.93834134196E-04 0.19244414348E-03 0.54159817731E-03 0.17537501359E-03
 0.12536886769E-03 0.11364834779E-03 0.33030340555E-03 0.68608899850E-03 0.87592063609E-03
 0.74581900786E-03 0.45804257044E-03 0.28553637011E-03 0.35352796080E-03 0.59283457442E-03
 0.83076886840E-03 0.88974389811E-03 0.70128505082E-03 0.39130266870E-03 0.19071011359E-03
 0.21253715481E-03 0.37211373638E-03 0.54833118429E-03 0.71844248969E-03 0.86818995444E-03
 0.89049140166E-03 0.71810171094E-03 0.49768709170E-03 0.46906725765E-03 0.67101442694E-03
 0.90750930576E-03 0.10194168954E-02 0.10373909927E-02 0.10194166203E-02 0.90750878348E-03
 0.67101373040E-03 0.46906649638E-03 0.49768635586E-03 0.71810100522E-03 0.89049063031E-03
 0.86818897995E-03 0.71844122322E-03 0.54832964376E-03 0.37211203596E-03 0.21253543904E-03
 0.19070848459E-03 0.39130115282E-03 0.70128361627E-03 0.88974249816E-03 0.83076747844E-03
 0.59283321043E-03 0.35352668012E-03 0.28553525026E-03 0.45804166354E-03 0.74581829604E-03
 0.87592003196E-03 0.68608840692E-03 0.33030280429E-03 0.11364781909E-03 0.12536855094E-03
 -.65774288836E-04 0.11958314148E-04 0.25108934297E-03 0.59841053383E-03 0.87592051589E-03
 0.90452009575E-03 0.69912593862E-03 0.46989953127E-03 0.41831232565E-03 0.57800140869E-03
 0.84388417917E-03 0.10787380634E-02 0.11713410880E-02 0.10727554942E-02 0.84608663359E-03
 0.65519958466E-03 0.65051760457E-03 0.86030873297E-03 0.11957575230E-02 0.15221797845E-02
 0.17069156703E-02 0.16682147744E-02 0.14603736327E-02 0.12904867595E-02 0.13647103081E-02
 0.16941722501E-02 0.20954222090E-02 0.23786335215E-02 0.24738179128E-02 0.23786332439E-02
 0.20954217074E-02 0.16941716307E-02 0.13647096991E-02 0.12904862442E-02 0.14603731863E-02
 0.16682142580E-02 0.17069148996E-02 0.15221786295E-02 0.11957559776E-02 0.86030690968E-03
 0.65051566448E-03 0.65519765499E-03 0.84608477172E-03 0.10727537119E-02 0.11713393960E-02
 0.10787364888E-02 0.84388275401E-03 0.57800015742E-03 0.41831126534E-03 0.46989866885E-03
 0.69912525516E-03 0.90451953888E-03 0.87592002504E-03 0.59841008568E-03 0.25108897499E-03
 0.11958100959E-04 0.16855879579E-03 0.22076557019E-03 0.37858512429E-03 0.59766305252E-03
 0.74581876816E-03 0.69912584294E-03 0.49653016525E-03 0.34105362252E-03 0.40952001757E-03
 0.68470502724E-03 0.99875783386E-03 0.12101864659E-02 0.12962352323E-02 0.12969956644E-02
 0.12491793162E-02 0.12142455960E-02 0.13181393277E-02 0.16746580186E-02 0.22363558480E-02
 0.27615857717E-02 0.29875677711E-02 0.28620099370E-02 0.25979551177E-02 0.24899716885E-02
 0.26721074956E-02 0.30444450685E-02 0.34066605313E-02 0.36306365180E-02 0.37007117245E-02
 0.36306364052E-02 0.34066603041E-02 0.30444447497E-02 0.26721071413E-02 0.24899713508E-02
 0.25979547853E-02 0.28620095072E-02 0.29875670864E-02 0.27615846993E-02 0.22363543511E-02
 0.16746561730E-02 0.13181372783E-02 0.12142434905E-02 0.12491772626E-02 0.12969937294E-02
 0.12962334573E-02 0.12101848717E-02 0.99875641678E-03 0.68470376576E-03 0.40951889406E-03
 0.34105263707E-03 0.49652932629E-03 0.69912514921E-03 0.74581820646E-03 0.59766261310E-03
 0.37858481367E-03 0.22076540709E-03 0.34591197511E-03 0.31764498602E-03 0.29244046014E-03
 0.35294595646E-03 0.45804228815E-03 0.46989943167E-03 0.34105363513E-03 0.21540812811E-03
 0.29335151184E-03 0.61160199300E-03 0.99743431080E-03 0.12423330423E-02 0.12903526164E-02
 0.12555919581E-02 0.13033046676E-02 0.15485243740E-02 0.20314612593E-02 0.27077748975E-02
 0.34240858579E-02 0.39516938207E-02 0.41272881228E-02 0.39979039264E-02 0.38020647769E-02
 0.37681826736E-02 0.39201022891E-02 0.40904958910E-02 0.41226121275E-02 0.40359906008E-02
 0.39788835201E-02 0.40359907083E-02 0.41226122388E-02 0.40904958832E-02 0.39201021087E-02
 0.37681823473E-02 0.38020643460E-02 0.39979033717E-02 0.41272873507E-02 0.39516927163E-02
 0.34240843590E-02 0.27077730360E-02 0.20314591536E-02 0.15485221863E-02 0.13033025527E-02
 0.12555900207E-02 0.12903508882E-02 0.12423314874E-02 0.99743285829E-03 0.61160058290E-03
 0.29335012937E-03 0.21540680708E-03 0.34105243357E-03 0.46989840121E-03 0.45804145767E-03
 0.35294533471E-03 0.29244004668E-03 0.31764477943E-03 0.14459624671E-03 0.10971817584E-03
 0.68737905927E-04 0.12716041775E-03 0.28553614386E-03 0.41831232242E-03 0.40952015216E-03
 0.29335164865E-03 0.24572323240E-03 0.42575808010E-03 0.81061881128E-03 0.11892515928E-02
 0.13555366126E-02 0.13396731067E-02 0.14283589157E-02 0.19067018718E-02 0.27658735990E-02
 0.36883227627E-02 0.43231520551E-02 0.45525950546E-02 0.45076113490E-02 0.43984756749E-02
 0.43658306929E-02 0.44263997410E-02 0.44738201251E-02 0.43469088232E-02 0.39882583168E-02
 0.35663244422E-02 0.33761553456E-02 0.35663246362E-02 0.39882585279E-02 0.43469088357E-02
 0.44738198350E-02 0.44263991924E-02 0.43658299872E-02 0.43984748521E-02 0.45076103463E-02
 0.45525937605E-02 0.43231503950E-02 0.36883207535E-02 0.27658713529E-02 0.19066995617E-02
 0.14283567149E-02 0.13396711215E-02 0.13555348393E-02 0.11892499332E-02 0.81061714158E-03
 0.42575632834E-03 0.24572141512E-03 0.29334985333E-03 0.40951848919E-03 0.41831088089E-03
 0.28553497228E-03 0.12715953194E-03 0.68737309541E-04 0.10971787443E-03 -.88435584311E-04
 -.81764939041E-04 -.28234963238E-04 0.12177220491E-03 0.35352781964E-03 0.57800151760E-03
 0.68470530698E-03 0.61160231505E-03 0.42575829611E-03 0.35240489378E-03 0.62687712634E-03
 0.12319569355E-02 0.18505805635E-02 0.22019495563E-02 0.23943992204E-02 0.27968151892E-02
 0.35365114807E-02 0.42759876898E-02 0.45765590992E-02 0.43767099163E-02 0.40034474002E-02
 0.37930633121E-02 0.38281845728E-02 0.39856730679E-02 0.40717022596E-02 0.39043880116E-02
 0.34381398489E-02 0.28927007404E-02 0.26466402742E-02 0.28927007701E-02 0.34381397425E-02
 0.39043875916E-02 0.40717014907E-02 0.39856720670E-02 0.38281834791E-02 0.37930621532E-02
 0.40034460728E-02 0.43767082761E-02 0.45765570691E-02 0.42759853097E-02 0.35365088912E-02
 0.27968125782E-02 0.23943967541E-02 0.22019473127E-02 0.18505784993E-02 0.12319549175E-02
 0.62687501855E-03 0.35240264557E-03 0.42575597357E-03 0.61160006108E-03 0.68470326766E-03
 0.57799978688E-03 0.35352642998E-03 0.12177115496E-03 -.28235675078E-04 -.81765301596E-04
 0.64297085140E-04 0.65448504892E-04 0.12665697829E-03 0.31775488695E-03 0.59283443177E-03
 0.84388428108E-03 0.99875814222E-03 0.99743473785E-03 0.81061921199E-03 0.62687735671E-03
 0.87988259398E-03 0.18268806020E-02 0.31172975263E-02 0.40404915521E-02 0.42725990213E-02
 0.41613271687E-02 0.41747046050E-02 0.42996794451E-02 0.41801161834E-02 0.36828293032E-02
 0.30715678806E-02 0.26789062681E-02 0.26313065740E-02 0.28730201491E-02 0.32267060388E-02
 0.34027432597E-02 0.31879492891E-02 0.27372599966E-02 0.25027808266E-02 0.27372596714E-02
 0.31879485554E-02 0.34027420840E-02 0.32267045427E-02 0.28730185525E-02 0.26313050258E-02
 0.26789047283E-02 0.30715661566E-02 0.36828271941E-02 0.41801136094E-02 0.42996764860E-02
 0.41747014527E-02 0.41613240412E-02 0.42725960790E-02 0.40404888421E-02 0.31172949729E-02
 0.18268780585E-02 0.87987994027E-03 0.62687458953E-03 0.81061646315E-03 0.99743220271E-03
 0.99875597373E-03 0.84388253198E-03 0.59283307659E-03 0.31775388292E-03 0.12665630502E-03
 0.65448164644E-04 0.51473570714E-03 0.45229295620E-03 0.39956673936E-03 0.54217072229E-03
 0.83076856527E-03 0.10787379532E-02 0.12101865879E-02 0.12423333888E-02 0.11892520423E-02
 0.12319573067E-02 0.18268807781E-02 0.32515641713E-02 0.50199230695E-02 0.61254510429E-02
 0.60350414479E-02 0.51942962275E-02 0.44011740828E-02 0.39424756855E-02 0.35655442822E-02
 0.30543773794E-02 0.24954739240E-02 0.20799843721E-02 0.19642256731E-02 0.22845113734E-02
 0.29927158991E-02 0.36668903040E-02 0.38190251005E-02 0.34938982516E-02 0.32675899479E-02
 0.34938975832E-02 0.38190237638E-02 0.36668884066E-02 0.29927137065E-02 0.22845091924E-02
 0.19642236528E-02 0.20799824088E-02 0.24954717478E-02 0.30543747389E-02 0.35655410907E-02
 0.39424720550E-02 0.44011702579E-02 0.51942924725E-02 0.60350379413E-02 0.61254478197E-02
 0.50199200278E-02 0.32515611479E-02 0.18268776686E-02 0.12319541647E-02 0.11892490773E-02
 0.12423308432E-02 0.12101845886E-02 0.10787364650E-02 0.83076747032E-03 0.54216992727E-03
 0.39956621092E-03 0.45229269184E-03 0.93675784175E-03 0.80851115321E-03 0.60697282923E-03
 0.62623200607E-03 0.88974330149E-03 0.11713405982E-02 0.12962349829E-02 0.12903527004E-02
 0.13555369510E-02 0.18505809416E-02 0.31172977579E-02 0.50199231244E-02 0.67183572870E-02
 0.72539833474E-02 0.64718009069E-02 0.51447824296E-02 0.41270211459E-02 0.36319585646E-02
 0.34061505042E-02 0.32501334094E-02 0.31132860596E-02 0.29588511776E-02 0.28953776812E-02
 0.32699511919E-02 0.42277524182E-02 0.52576964841E-02 0.56242314722E-02 0.53018350498E-02
 0.50359796627E-02 0.53018342373E-02 0.56242298649E-02 0.52576942236E-02 0.42277498128E-02
 0.32699485824E-02 0.28953752303E-02 0.29588487739E-02 0.31132834143E-02 0.32501302533E-02
 0.34061467459E-02 0.36319543349E-02 0.41270167308E-02 0.51447781427E-02 0.64717969608E-02
 0.72539797792E-02 0.67183539686E-02 0.50199198616E-02 0.31172944461E-02 0.18505776836E-02
 0.13555340282E-02 0.12903503870E-02 0.12962333536E-02 0.11713395047E-02 0.88974252479E-03
 0.62623141613E-03 0.60697241121E-03 0.80851093567E-03 0.12240942556E-02 0.10525517433E-02
 0.70576461476E-03 0.52647687609E-03 0.70128413384E-03 0.10727546033E-02 0.12969950137E-02
 0.12555917260E-02 0.13396732576E-02 0.22019498511E-02 0.40404917336E-02 0.61254510166E-02
 0.72539832228E-02 0.68304761384E-02 0.54144312740E-02 0.41119946105E-02 0.35709281427E-02
 0.37149662708E-02 0.42300989322E-02 0.48991186186E-02 0.54687528351E-02 0.56699920181E-02
 0.56356992437E-02 0.59595385752E-02 0.69543466352E-02 0.80497930722E-02 0.83844449788E-02
 0.79451963746E-02 0.76138204482E-02 0.79451956365E-02 0.83844434676E-02 0.80497908500E-02
 0.69543439434E-02 0.59595357332E-02 0.56356964424E-02 0.56699891996E-02 0.54687497560E-02
 0.48991150336E-02 0.42300947618E-02 0.37149616617E-02 0.35709234079E-02 0.41119900936E-02
 0.54144272049E-02 0.68304725465E-02 0.72539799475E-02 0.61254478271E-02 0.40404885154E-02
 0.22019467367E-02 0.13396705701E-02 0.12555897443E-02 0.12969937527E-02 0.10727538173E-02
 0.70128353066E-03 0.52647632103E-03 0.70576415104E-03 0.10525514772E-02 0.13798342581E-02
 0.11832862652E-02 0.72040891111E-03 0.33957028472E-03 0.39130152471E-03 0.84608548250E-03
 0.12491784169E-02 0.13033042364E-02 0.14283589376E-02 0.23943994390E-02 0.42725991203E-02
 0.60350412665E-02 0.64718005279E-02 0.54144309505E-02 0.38498111303E-02 0.29286160587E-02
 0.31267725509E-02 0.42978215719E-02 0.60739818853E-02 0.79413279599E-02 0.92380861334E-02
 0.95852380869E-02 0.93774154896E-02 0.94814150280E-02 0.10250057911E-01 0.11071385599E-01
 0.11148606108E-01 0.10562079795E-01 0.10191412241E-01 0.10562079183E-01 0.11148604795E-01
 0.11071383555E-01 0.10250055281E-01 0.94814120784E-02 0.93774124279E-02 0.95852349221E-02
 0.92380827009E-02 0.79413240767E-02 0.60739775127E-02 0.42978168809E-02 0.31267678627E-02
 0.29286117053E-02 0.38498073126E-02 0.54144276578E-02 0.64717975616E-02 0.60350383748E-02
 0.42725961891E-02 0.23943966115E-02 0.14283565352E-02 0.13033025093E-02 0.12491773318E-02
 0.84608474934E-03 0.39130083674E-03 0.33956953996E-03 0.72040823229E-03 0.11832858571E-02
 0.12599798414E-02 0.10758616202E-02 0.61965442092E-03 0.19897535524E-03 0.19070890790E-03
 0.65519840337E-03 0.12142446998E-02 0.15485239611E-02 0.19067019147E-02 0.27968154191E-02
 0.41613272364E-02 0.51942959212E-02 0.51447817946E-02 0.41119939044E-02 0.29286155977E-02
 0.24778172342E-02 0.32761003223E-02 0.54096839355E-02 0.84239394800E-02 0.11291127851E-01
 0.12942753591E-01 0.13130097975E-01 0.12634793545E-01 0.12441677601E-01 0.12765363339E-01
 0.13025138861E-01 0.12702056207E-01 0.12012054185E-01 0.11656462191E-01 0.12012053542E-01
 0.12702054863E-01 0.13025136808E-01 0.12765360702E-01 0.12441674597E-01 0.12634790343E-01
 0.13130094597E-01 0.12942749935E-01 0.11291123823E-01 0.84239351176E-02 0.54096794462E-02
 0.32760960082E-02 0.24778133609E-02 0.29286122782E-02 0.41119910558E-02 0.51447791908E-02
 0.51942933310E-02 0.41613245825E-02 0.27968128514E-02 0.19066997122E-02 0.15485223116E-02
 0.12142435370E-02 0.65519745486E-03 0.19070791834E-03 0.19897428477E-03 0.61965346063E-03
 0.10758610461E-02 0.79786254116E-03 0.67929764971E-03 0.39514934155E-03 0.15578000581E-03
 0.21253605172E-03 0.65051661176E-03 0.13181386656E-02 0.20314610639E-02 0.27658738075E-02
 0.35365118269E-02 0.41747047455E-02 0.44011737832E-02 0.41270204052E-02 0.35709271828E-02
 0.31267716918E-02 0.32760998322E-02 0.45408678563E-02 0.71444321504E-02 0.10518852442E-01
 0.13402396275E-01 0.14775923290E-01 0.14718319427E-01 0.14163804504E-01 0.13857739135E-01
 0.13756006216E-01 0.13421677970E-01 0.12721617552E-01 0.11991744750E-01 0.11683759235E-01
 0.11991743851E-01 0.12721615846E-01 0.13421675634E-01 0.13756003473E-01 0.13857736165E-01
 0.14163801365E-01 0.14718316059E-01 0.14775919606E-01 0.13402392275E-01 0.10518848271E-01
 0.71444280595E-02 0.45408640988E-02 0.32760965530E-02 0.31267688703E-02 0.35709246545E-02
 0.41270179535E-02 0.44011712622E-02 0.41747021694E-02 0.35365093645E-02 0.27658716678E-02
 0.20314593413E-02 0.13181372637E-02 0.65051531719E-03 0.21253470692E-03 0.15577864348E-03
 0.39514818187E-03 0.67929697503E-03 0.29677281132E-03 0.25981655240E-03 0.18767737839E-03
 0.18254339234E-03 0.37211284305E-03 0.86030806494E-03 0.16746577200E-02 0.27077750181E-02
 0.36883232042E-02 0.42759882161E-02 0.42996797633E-02 0.39424755709E-02 0.36319579643E-02
 0.37149653256E-02 0.42978205461E-02 0.54096831029E-02 0.71444317009E-02 0.94477458982E-02
 0.11829394635E-01 0.13560602974E-01 0.14294659541E-01 0.14360375163E-01 0.14312431464E-01
 0.14298541369E-01 0.14029814085E-01 0.13299241545E-01 0.12317051109E-01 0.11517362747E-01
 0.11218052657E-01 0.11517361527E-01 0.12317048964E-01 0.13299238916E-01 0.14029811340E-01
 0.14298538646E-01 0.14312428662E-01 0.14360372080E-01 0.14294656063E-01 0.13560599185E-01
 0.11829390791E-01 0.94477422886E-02 0.71444285058E-02 0.54096803182E-02 0.42978180079E-02
 0.37149628123E-02 0.36319553233E-02 0.39424728034E-02 0.42996770178E-02 0.42759856925E-02
 0.36883210295E-02 0.27077731758E-02 0.16746560783E-02 0.86030647897E-03 0.37211126247E-03
 0.18254190922E-03 0.18767619442E-03 0.25981588926E-03 0.13150088912E-03 0.14440433837E-03
 0.17798608045E-03 0.26696879464E-03 0.54833053357E-03 0.11957572087E-02 0.22363559184E-02
 0.34240862754E-02 0.43231527034E-02 0.45765598024E-02 0.41801167331E-02 0.35655444885E-02
 0.34061502640E-02 0.42300982769E-02 0.60739809736E-02 0.84239385392E-02 0.10518851693E-01
 0.11829394232E-01 0.12380229475E-01 0.12677829691E-01 0.13286024505E-01 0.14360216513E-01
 0.15503490609E-01 0.16068681316E-01 0.15661603679E-01 0.14429557447E-01 0.12931565265E-01
 0.11774412875E-01 0.11347721332E-01 0.11774411550E-01 0.12931563047E-01 0.14429554939E-01
 0.15661601312E-01 0.16068679147E-01 0.15503488386E-01 0.14360213921E-01 0.13286021418E-01
 0.12677826265E-01 0.12380226039E-01 0.11829391084E-01 0.10518848931E-01 0.84239360267E-02
 0.60739784451E-02 0.42300955062E-02 0.34061472054E-02 0.35655413076E-02 0.41801137069E-02
 0.45765571528E-02 0.43231504787E-02 0.34240843603E-02 0.22363541495E-02 0.11957554959E-02
 0.54832890736E-03 0.26696737641E-03 0.17798502247E-03 0.14440377188E-03 0.25398479159E-03
 0.29058650221E-03 0.34714555750E-03 0.41657510324E-03 0.71844205394E-03 0.15221797559E-02
 0.27615861109E-02 0.39516944243E-02 0.45525958125E-02 0.43767107287E-02 0.36828300542E-02
 0.30543779223E-02 0.32501336020E-02 0.48991183870E-02 0.79413273428E-02 0.11291126997E-01
 0.13402395398E-01 0.13560602286E-01 0.12677829336E-01 0.12600847206E-01 0.14459922197E-01
 0.17659078251E-01 0.20435808385E-01 0.21307205983E-01 0.20017318805E-01 0.17387127257E-01
 0.14580674303E-01 0.12537171116E-01 0.11798800724E-01 0.12537170078E-01 0.14580672643E-01
 0.17387125515E-01 0.20017317293E-01 0.21307204624E-01 0.20435806837E-01 0.17659076192E-01
 0.14459919555E-01 0.12600844197E-01 0.12677826309E-01 0.13560599501E-01 0.13402392877E-01
 0.11291124535E-01 0.79413246519E-02 0.48991152941E-02 0.32501301727E-02 0.30543744395E-02
 0.36828268601E-02 0.43767080332E-02 0.45525936008E-02 0.39516925229E-02 0.27615843448E-02
 0.15221780681E-02 0.71844051304E-03 0.41657383153E-03 0.34714466006E-03 0.29058604083E-03
 0.32179792238E-03 0.37796250968E-03 0.46999886792E-03 0.55714966385E-03 0.86818966646E-03
 0.17069157954E-02 0.29875682157E-02 0.41272887549E-02 0.45076120844E-02 0.40034482088E-02
 0.30715687181E-02 0.24954746765E-02 0.31132865613E-02 0.54687529413E-02 0.92380857927E-02
 0.12942752878E-01 0.14775922393E-01 0.14294658698E-01 0.13286023913E-01 0.14459921933E-01
 0.18904182167E-01 0.24839665234E-01 0.28994970203E-01 0.29194083292E-01 0.25701117927E-01
 0.20482508555E-01 0.15621129927E-01 0.12388107971E-01 0.11276271183E-01 0.12388107496E-01
 0.15621129247E-01 0.20482507967E-01 0.25701117497E-01 0.29194082786E-01 0.28994969257E-01
 0.24839663608E-01 0.18904179891E-01 0.14459919271E-01 0.13286021190E-01 0.14294656114E-01
 0.14775919930E-01 0.12942750334E-01 0.92380829353E-02 0.54687496794E-02 0.31132830347E-02
 0.24954712023E-02 0.30715656201E-02 0.40034456471E-02 0.45076099994E-02 0.41272869575E-02
 0.29875665408E-02 0.17069142018E-02 0.86818822911E-03 0.55714849780E-03 0.46999806041E-03
 0.37796210086E-03 0.23937083293E-03 0.28408897456E-03 0.38673936920E-03 0.53965150910E-03
 0.89049117333E-03 0.16682149064E-02 0.28620103227E-02 0.39979044420E-02 0.43984762698E-02
 0.37930639992E-02 0.26789070351E-02 0.20799851157E-02 0.29588517234E-02 0.56699921997E-02
 0.95852378219E-02 0.13130097305E-01 0.14718318515E-01 0.14360374245E-01 0.14360215802E-01
 0.17659077850E-01 0.24839665098E-01 0.32862806707E-01 0.37217384741E-01 0.35516159610E-01
 0.29051468688E-01 0.21216608351E-01 0.14880759520E-01 0.11164483922E-01 0.99885951521E-02
 0.11164483874E-01 0.14880759564E-01 0.21216608589E-01 0.29051469013E-01 0.35516159693E-01
 0.37217384218E-01 0.32862805393E-01 0.24839663074E-01 0.17659075387E-01 0.14360213199E-01
 0.14360371679E-01 0.14718315986E-01 0.13130094670E-01 0.95852349259E-02 0.56699890105E-02
 0.29588483996E-02 0.20799819448E-02 0.26789042779E-02 0.37930617515E-02 0.43984744368E-02
 0.39979028335E-02 0.28620087872E-02 0.16682134119E-02 0.89048979853E-03 0.53965037585E-03
 0.38673857607E-03 0.28408857100E-03 0.22023578635E-03 0.19430170883E-03 0.18856012916E-03
 0.33088993418E-03 0.71810146332E-03 0.14603736675E-02 0.25979553443E-02 0.38020651041E-02
 0.43658310982E-02 0.38281850774E-02 0.26313071542E-02 0.19642262119E-02 0.28953780066E-02
 0.56356992122E-02 0.93774150477E-02 0.12634792748E-01 0.14163803505E-01 0.14312430473E-01
 0.15503489820E-01 0.20435807900E-01 0.28994970000E-01 0.37217384707E-01 0.40138658639E-01
 0.36008091977E-01 0.27582584572E-01 0.19441989669E-01 0.14418114450E-01 0.12444762665E-01
 0.12049427692E-01 0.12444762422E-01 0.14418114182E-01 0.19441989608E-01 0.27582584735E-01
 0.36008092101E-01 0.40138658323E-01 0.37217383655E-01 0.28994968174E-01 0.20435805501E-01
 0.15503487152E-01 0.14312427784E-01 0.14163800881E-01 0.12634790117E-01 0.93774122835E-02
 0.56356962747E-02 0.28953750271E-02 0.19642234431E-02 0.26313048173E-02 0.38281832261E-02
 0.43658296015E-02 0.38020637501E-02 0.25979539785E-02 0.14603722721E-02 0.71810014233E-03
 0.33088883531E-03 0.18855936408E-03 0.19430132366E-03 0.33671998889E-03 0.23695516664E-03
 0.78851652670E-04 0.11661545808E-03 0.49768679916E-03 0.12904866776E-02 0.24899717536E-02
 0.37681828368E-02 0.44264000018E-02 0.39856734303E-02 0.28730205474E-02 0.22845116570E-02
 0.32699511920E-02 0.59595381920E-02 0.94814142686E-02 0.12441676563E-01 0.13857737970E-01
 0.14298540246E-01 0.16068680384E-01 0.21307205337E-01 0.29194082958E-01 0.35516159543E-01
 0.36008092058E-01 0.30461556568E-01 0.23181797111E-01 0.19193717749E-01 0.20084668056E-01
 0.23308577747E-01 0.24977364416E-01 0.23308576470E-01 0.20084666092E-01 0.19193715910E-01
 0.23181795942E-01 0.30461556060E-01 0.36008091722E-01 0.35516158764E-01 0.29194081365E-01
 0.21307202966E-01 0.16068677580E-01 0.14298537411E-01 0.13857735328E-01 0.12441674081E-01
 0.94814117656E-02 0.59595355461E-02 0.32699484905E-02 0.22845091633E-02 0.28730185144E-02
 0.39856719165E-02 0.44263988375E-02 0.37681817554E-02 0.24899705748E-02 0.12904854065E-02
 0.49768558890E-03 0.11661448703E-03 0.78851017916E-04 0.23695486686E-03 0.38749361614E-03
 0.29557707537E-03 0.12124967201E-03 0.99201864591E-04 0.46906697331E-03 0.13647101762E-02
 0.26721074742E-02 0.39201023733E-02 0.44738203412E-02 0.40717025971E-02 0.32267063858E-02
 0.29927160595E-02 0.42277522100E-02 0.69543459873E-02 0.10250056884E-01 0.12765362072E-01
 0.13756004862E-01 0.14029812769E-01 0.15661602496E-01 0.20017317851E-01 0.25701117318E-01
 0.29051468531E-01 0.27582584855E-01 0.23181797559E-01 0.21367871911E-01 0.26697901676E-01
 0.38434891956E-01 0.50456382337E-01 0.55519636722E-01 0.50456379438E-01 0.38434887323E-01
 0.26697897003E-01 0.21367868543E-01 0.23181795880E-01 0.27582584276E-01 0.29051468009E-01
 0.25701116031E-01 0.20017315602E-01 0.15661599664E-01 0.14029809926E-01 0.13756002362E-01
 0.12765359875E-01 0.10250054695E-01 0.69543435686E-02 0.42277496176E-02 0.29927136194E-02
 0.32267044463E-02 0.40717012646E-02 0.44738194153E-02 0.39201015184E-02 0.26721064726E-02
 0.13647090583E-02 0.46906594532E-03 0.99201122903E-04 0.12124926718E-03 0.29557692230E-03
 0.28525877946E-03 0.26045539279E-03 0.19953143379E-03 0.23641224409E-03 0.67101425223E-03
 0.16941721721E-02 0.30444450502E-02 0.40904959684E-02 0.43469090668E-02 0.39043884270E-02
 0.34027437128E-02 0.36668905530E-02 0.52576963052E-02 0.80497923809E-02 0.11071384474E-01
 0.13025137473E-01 0.13421676475E-01 0.13299240033E-01 0.14429555968E-01 0.17387125920E-01
 0.20482507602E-01 0.21216608109E-01 0.19441990340E-01 0.19193719121E-01 0.26697902967E-01
 0.45316624981E-01 0.71333105446E-01 0.94504449315E-01 0.10380483799E+00 0.94504444856E-01
 0.71333098216E-01 0.45316617487E-01 0.26697897309E-01 0.19193716091E-01 0.19441989324E-01
 0.21216607737E-01 0.20482506663E-01 0.17387123983E-01 0.14429553381E-01 0.13299237451E-01
 0.13421674312E-01 0.13025135654E-01 0.11071382603E-01 0.80497901371E-02 0.52576937368E-02
 0.36668880572E-02 0.34027417354E-02 0.39043871334E-02 0.43469082494E-02 0.40904952476E-02
 0.30444441818E-02 0.16941712025E-02 0.67101341898E-03 0.23641174206E-03 0.19953126019E-03
 0.26045538361E-03 0.22580095394E-03 0.21562259080E-03 0.19277153831E-03 0.31121478025E-03
 0.90750932212E-03 0.20954222600E-02 0.34066605647E-02 0.41226122111E-02 0.39882585806E-02
 0.34381403515E-02 0.31879499119E-02 0.38190255676E-02 0.56242314962E-02 0.83844444210E-02
 0.11148605033E-01 0.12702054805E-01 0.12721615996E-01 0.12317049475E-01 0.12931563577E-01
 0.14580672685E-01 0.15621128744E-01 0.14880759336E-01 0.14418115738E-01 0.20084670782E-01
 0.38434895304E-01 0.71333107931E-01 0.11199728962E+00 0.14628111390E+00 0.15974482896E+00
 0.14628110864E+00 0.11199728100E+00 0.71333098808E-01 0.38434888147E-01 0.20084666668E-01
 0.14418114178E-01 0.14880758921E-01 0.15621128125E-01 0.14580671265E-01 0.12931561573E-01
 0.12317047460E-01 0.12721614340E-01 0.12702053409E-01 0.11148603494E-01 0.83844424174E-02
 0.56242290823E-02 0.38190231539E-02 0.31879479653E-02 0.34381390650E-02 0.39882577742E-02
 0.41226115257E-02 0.34066597661E-02 0.20954213945E-02 0.90750861804E-03 0.31121441363E-03
 0.19277147934E-03 0.21562264778E-03 0.32823489159E-03 0.25005452761E-03 0.11439762425E-03
 0.24503024112E-03 0.10194171209E-02 0.23786337182E-02 0.36306366052E-02 0.40359906650E-02
 0.35663246733E-02 0.28927012675E-02 0.27372607412E-02 0.34938989221E-02 0.53018352953E-02
 0.79451959883E-02 0.10562078813E-01 0.12012052815E-01 0.11991743200E-01 0.11517361105E-01
 0.11774411152E-01 0.12537169442E-01 0.12388106790E-01 0.11164483981E-01 0.12444764695E-01
 0.23308581959E-01 0.50456388026E-01 0.94504454891E-01 0.14628111742E+00 0.18880372376E+00
 0.20531346604E+00 0.18880371883E+00 0.14628110923E+00 0.94504445996E-01 0.50456380718E-01
 0.23308577380E-01 0.12444762632E-01 0.11164483347E-01 0.12388106419E-01 0.12537168686E-01
 0.11774410005E-01 0.11517359889E-01 0.11991742149E-01 0.12012051852E-01 0.10562077647E-01
 0.79451943951E-02 0.53018333322E-02 0.34938969124E-02 0.27372590519E-02 0.28927000636E-02
 0.35663238398E-02 0.40359899447E-02 0.36306358235E-02 0.23786329069E-02 0.10194164539E-02
 0.24502985963E-03 0.11439751257E-03 0.25005453960E-03 0.41317917025E-03 0.28767163610E-03
 0.68941113723E-04 0.18564544648E-03 0.10373914005E-02 0.24738182409E-02 0.37007118654E-02
 0.39788835689E-02 0.33761555364E-02 0.26466407950E-02 0.25027816396E-02 0.32675907587E-02
 0.50359800753E-02 0.76138202005E-02 0.10191411343E-01 0.11656460869E-01 0.11683757734E-01
 0.11218051093E-01 0.11347719715E-01 0.11798799169E-01 0.11276270147E-01 0.99885954665E-02
 0.12049430272E-01 0.24977369721E-01 0.55519644268E-01 0.10380484627E+00 0.15974483590E+00
 0.20531346986E+00 0.22294008399E+00 0.20531346621E+00 0.15974482971E+00 0.10380483929E+00
 0.55519638149E-01 0.24977365447E-01 0.12049427967E-01 0.99885946035E-02 0.11276269980E-01
 0.11798799118E-01 0.11347719523E-01 0.11218050747E-01 0.11683757286E-01 0.11656460299E-01
 0.10191410565E-01 0.76138191516E-02 0.50359788031E-02 0.32675894182E-02 0.25027804050E-02
 0.26466397590E-02 0.33761546731E-02 0.39788827820E-02 0.37007110797E-02 0.24738174662E-02
 0.10373907228E-02 0.18564495599E-03 0.68940835393E-04 0.28767152430E-03 0.32823510088E-03