   5   5   1   0
  0.5120957E+02  0.6350000E-09  0.6350000E-09  0.6350000E-09  0.5000000E-15
  1.000000000000000E-004
  CAR 
 Screening bandgap                       
      3.89703928    -17.55718443  301     -8.61345492      1.00000000
    -17.557  0.0000E+00  0.0000E+00
    -17.486  0.0000E+00  0.0000E+00
    -17.414  0.0000E+00  0.0000E+00
    -17.343  0.0000E+00  0.0000E+00
    -17.271  0.0000E+00  0.0000E+00
    -17.200  0.0000E+00  0.0000E+00
    -17.128  0.0000E+00  0.0000E+00
    -17.057  0.0000E+00  0.0000E+00
    -16.985  0.0000E+00  0.0000E+00
    -16.914  0.0000E+00  0.0000E+00
    -16.842  0.2662E-11  0.1904E-12
    -16.771  0.1354E-05  0.9680E-07
    -16.699  0.1305E-01  0.9333E-03
    -16.628  0.2756E+01  0.1980E+00
    -16.556  0.1874E+02  0.1538E+01
    -16.484  0.6379E+01  0.1994E+01
    -16.413  0.8123E-01  0.2000E+01
    -16.341  0.2439E-04  0.2000E+01
    -16.270  0.1426E-09  0.2000E+01
    -16.198  0.0000E+00  0.2000E+01
    -16.127  0.0000E+00  0.2000E+01
    -16.055  0.0000E+00  0.2000E+01
    -15.984  0.0000E+00  0.2000E+01
    -15.912  0.0000E+00  0.2000E+01
    -15.841  0.0000E+00  0.2000E+01
    -15.769  0.0000E+00  0.2000E+01
    -15.698  0.0000E+00  0.2000E+01
    -15.626  0.0000E+00  0.2000E+01
    -15.555  0.0000E+00  0.2000E+01
    -15.483  0.0000E+00  0.2000E+01
    -15.412  0.0000E+00  0.2000E+01
    -15.340  0.0000E+00  0.2000E+01
    -15.269  0.0000E+00  0.2000E+01
    -15.197  0.0000E+00  0.2000E+01
    -15.126  0.0000E+00  0.2000E+01
    -15.054  0.0000E+00  0.2000E+01
    -14.983  0.0000E+00  0.2000E+01
    -14.911  0.0000E+00  0.2000E+01
    -14.840  0.0000E+00  0.2000E+01
    -14.768  0.0000E+00  0.2000E+01
    -14.697  0.0000E+00  0.2000E+01
    -14.625  0.0000E+00  0.2000E+01
    -14.554  0.0000E+00  0.2000E+01
    -14.482  0.0000E+00  0.2000E+01
    -14.411  0.0000E+00  0.2000E+01
    -14.339  0.0000E+00  0.2000E+01
    -14.268  0.0000E+00  0.2000E+01
    -14.196  0.0000E+00  0.2000E+01
    -14.125  0.0000E+00  0.2000E+01
    -14.053  0.0000E+00  0.2000E+01
    -13.981  0.0000E+00  0.2000E+01
    -13.910  0.0000E+00  0.2000E+01
    -13.838  0.0000E+00  0.2000E+01
    -13.767  0.0000E+00  0.2000E+01
    -13.695  0.0000E+00  0.2000E+01
    -13.624  0.0000E+00  0.2000E+01
    -13.552  0.0000E+00  0.2000E+01
    -13.481  0.0000E+00  0.2000E+01
    -13.409  0.0000E+00  0.2000E+01
    -13.338  0.0000E+00  0.2000E+01
    -13.266  0.0000E+00  0.2000E+01
    -13.195  0.0000E+00  0.2000E+01
    -13.123  0.0000E+00  0.2000E+01
    -13.052  0.0000E+00  0.2000E+01
    -12.980  0.0000E+00  0.2000E+01
    -12.909  0.0000E+00  0.2000E+01
    -12.837  0.0000E+00  0.2000E+01
    -12.766  0.0000E+00  0.2000E+01
    -12.694  0.0000E+00  0.2000E+01
    -12.623  0.0000E+00  0.2000E+01
    -12.551  0.0000E+00  0.2000E+01
    -12.480  0.0000E+00  0.2000E+01
    -12.408  0.0000E+00  0.2000E+01
    -12.337  0.0000E+00  0.2000E+01
    -12.265  0.0000E+00  0.2000E+01
    -12.194  0.0000E+00  0.2000E+01
    -12.122  0.0000E+00  0.2000E+01
    -12.051  0.0000E+00  0.2000E+01
    -11.979  0.0000E+00  0.2000E+01
    -11.908  0.0000E+00  0.2000E+01
    -11.836  0.0000E+00  0.2000E+01
    -11.765  0.0000E+00  0.2000E+01
    -11.693  0.0000E+00  0.2000E+01
    -11.622  0.0000E+00  0.2000E+01
    -11.550  0.0000E+00  0.2000E+01
    -11.478  0.0000E+00  0.2000E+01
    -11.407  0.0000E+00  0.2000E+01
    -11.335  0.0000E+00  0.2000E+01
    -11.264  0.0000E+00  0.2000E+01
    -11.192  0.0000E+00  0.2000E+01
    -11.121  0.0000E+00  0.2000E+01
    -11.049  0.0000E+00  0.2000E+01
    -10.978  0.0000E+00  0.2000E+01
    -10.906  0.0000E+00  0.2000E+01
    -10.835  0.0000E+00  0.2000E+01
    -10.763  0.0000E+00  0.2000E+01
    -10.692  0.0000E+00  0.2000E+01
    -10.620  0.0000E+00  0.2000E+01
    -10.549  0.0000E+00  0.2000E+01
    -10.477  0.0000E+00  0.2000E+01
    -10.406  0.0000E+00  0.2000E+01
    -10.334  0.0000E+00  0.2000E+01
    -10.263  0.0000E+00  0.2000E+01
    -10.191  0.0000E+00  0.2000E+01
    -10.120  0.0000E+00  0.2000E+01
    -10.048  0.0000E+00  0.2000E+01
     -9.977  0.0000E+00  0.2000E+01
     -9.905  0.0000E+00  0.2000E+01
     -9.834  0.0000E+00  0.2000E+01
     -9.762  0.0000E+00  0.2000E+01
     -9.691  0.0000E+00  0.2000E+01
     -9.619  0.0000E+00  0.2000E+01
     -9.548  0.0000E+00  0.2000E+01
     -9.476  0.0000E+00  0.2000E+01
     -9.405  0.0000E+00  0.2000E+01
     -9.333  0.0000E+00  0.2000E+01
     -9.262  0.0000E+00  0.2000E+01
     -9.190  0.0000E+00  0.2000E+01
     -9.119  0.2398E-08  0.2000E+01
     -9.047  0.2495E-03  0.2000E+01
     -8.975  0.5127E+00  0.2037E+01
     -8.904  0.2588E+02  0.3888E+01
     -8.832  0.5232E+02  0.7629E+01
     -8.761  0.5169E+01  0.7999E+01
     -8.689  0.1540E-01  0.8000E+01
     -8.618  0.9784E-06  0.8000E+01
     -8.546  0.1174E-11  0.8000E+01
     -8.475  0.0000E+00  0.8000E+01
     -8.403  0.0000E+00  0.8000E+01
     -8.332  0.0000E+00  0.8000E+01
     -8.260  0.0000E+00  0.8000E+01
     -8.189  0.0000E+00  0.8000E+01
     -8.117  0.0000E+00  0.8000E+01
     -8.046  0.0000E+00  0.8000E+01
     -7.974  0.0000E+00  0.8000E+01
     -7.903  0.0000E+00  0.8000E+01
     -7.831  0.0000E+00  0.8000E+01
     -7.760  0.0000E+00  0.8000E+01
     -7.688  0.0000E+00  0.8000E+01
     -7.617  0.0000E+00  0.8000E+01
     -7.545  0.0000E+00  0.8000E+01
     -7.474  0.0000E+00  0.8000E+01
     -7.402  0.0000E+00  0.8000E+01
     -7.331  0.0000E+00  0.8000E+01
     -7.259  0.0000E+00  0.8000E+01
     -7.188  0.0000E+00  0.8000E+01
     -7.116  0.0000E+00  0.8000E+01
     -7.045  0.0000E+00  0.8000E+01
     -6.973  0.0000E+00  0.8000E+01
     -6.902  0.0000E+00  0.8000E+01
     -6.830  0.0000E+00  0.8000E+01
     -6.759  0.0000E+00  0.8000E+01
     -6.687  0.0000E+00  0.8000E+01
     -6.616  0.0000E+00  0.8000E+01
     -6.544  0.0000E+00  0.8000E+01
     -6.473  0.0000E+00  0.8000E+01
     -6.401  0.0000E+00  0.8000E+01
     -6.329  0.0000E+00  0.8000E+01
     -6.258  0.0000E+00  0.8000E+01
     -6.186  0.0000E+00  0.8000E+01
     -6.115  0.0000E+00  0.8000E+01
     -6.043  0.0000E+00  0.8000E+01
     -5.972  0.0000E+00  0.8000E+01
     -5.900  0.0000E+00  0.8000E+01
     -5.829  0.0000E+00  0.8000E+01
     -5.757  0.0000E+00  0.8000E+01
     -5.686  0.0000E+00  0.8000E+01
     -5.614  0.0000E+00  0.8000E+01
     -5.543  0.0000E+00  0.8000E+01
     -5.471  0.0000E+00  0.8000E+01
     -5.400  0.0000E+00  0.8000E+01
     -5.328  0.0000E+00  0.8000E+01
     -5.257  0.0000E+00  0.8000E+01
     -5.185  0.0000E+00  0.8000E+01
     -5.114  0.0000E+00  0.8000E+01
     -5.042  0.0000E+00  0.8000E+01
     -4.971  0.0000E+00  0.8000E+01
     -4.899  0.0000E+00  0.8000E+01
     -4.828  0.0000E+00  0.8000E+01
     -4.756  0.0000E+00  0.8000E+01
     -4.685  0.0000E+00  0.8000E+01
     -4.613  0.0000E+00  0.8000E+01
     -4.542  0.0000E+00  0.8000E+01
     -4.470  0.0000E+00  0.8000E+01
     -4.399  0.0000E+00  0.8000E+01
     -4.327  0.0000E+00  0.8000E+01
     -4.256  0.0000E+00  0.8000E+01
     -4.184  0.0000E+00  0.8000E+01
     -4.113  0.0000E+00  0.8000E+01
     -4.041  0.0000E+00  0.8000E+01
     -3.970  0.0000E+00  0.8000E+01
     -3.898  0.0000E+00  0.8000E+01
     -3.826  0.0000E+00  0.8000E+01
     -3.755  0.0000E+00  0.8000E+01
     -3.683  0.0000E+00  0.8000E+01
     -3.612  0.0000E+00  0.8000E+01
     -3.540  0.0000E+00  0.8000E+01
     -3.469  0.0000E+00  0.8000E+01
     -3.397  0.0000E+00  0.8000E+01
     -3.326  0.0000E+00  0.8000E+01
     -3.254  0.0000E+00  0.8000E+01
     -3.183  0.0000E+00  0.8000E+01
     -3.111  0.0000E+00  0.8000E+01
     -3.040  0.0000E+00  0.8000E+01
     -2.968  0.0000E+00  0.8000E+01
     -2.897  0.0000E+00  0.8000E+01
     -2.825  0.0000E+00  0.8000E+01
     -2.754  0.0000E+00  0.8000E+01
     -2.682  0.0000E+00  0.8000E+01
     -2.611  0.0000E+00  0.8000E+01
     -2.539  0.0000E+00  0.8000E+01
     -2.468  0.0000E+00  0.8000E+01
     -2.396  0.0000E+00  0.8000E+01
     -2.325  0.0000E+00  0.8000E+01
     -2.253  0.0000E+00  0.8000E+01
     -2.182  0.0000E+00  0.8000E+01
     -2.110  0.0000E+00  0.8000E+01
     -2.039  0.0000E+00  0.8000E+01
     -1.967  0.0000E+00  0.8000E+01
     -1.896  0.0000E+00  0.8000E+01
     -1.824  0.0000E+00  0.8000E+01
     -1.753  0.0000E+00  0.8000E+01
     -1.681  0.0000E+00  0.8000E+01
     -1.610  0.0000E+00  0.8000E+01
     -1.538  0.0000E+00  0.8000E+01
     -1.467  0.0000E+00  0.8000E+01
     -1.395  0.0000E+00  0.8000E+01
     -1.323  0.0000E+00  0.8000E+01
     -1.252  0.0000E+00  0.8000E+01
     -1.180  0.0000E+00  0.8000E+01
     -1.109  0.0000E+00  0.8000E+01
     -1.037  0.1887E-10  0.8000E+01
     -0.966  0.5668E-05  0.8000E+01
     -0.894  0.3267E-01  0.8002E+01
     -0.823  0.4264E+01  0.8307E+01
     -0.751  0.1924E+02  0.9684E+01
     -0.680  0.4390E+01  0.9998E+01
     -0.608  0.3482E-01  0.1000E+02
     -0.537  0.6269E-05  0.1000E+02
     -0.465  0.2168E-10  0.1000E+02
     -0.394  0.0000E+00  0.1000E+02
     -0.322  0.0000E+00  0.1000E+02
     -0.251  0.0000E+00  0.1000E+02
     -0.179  0.0000E+00  0.1000E+02
     -0.108  0.0000E+00  0.1000E+02
     -0.036  0.0000E+00  0.1000E+02
      0.035  0.0000E+00  0.1000E+02
      0.107  0.0000E+00  0.1000E+02
      0.178  0.0000E+00  0.1000E+02
      0.250  0.0000E+00  0.1000E+02
      0.321  0.0000E+00  0.1000E+02
      0.393  0.0000E+00  0.1000E+02
      0.464  0.0000E+00  0.1000E+02
      0.536  0.0000E+00  0.1000E+02
      0.607  0.0000E+00  0.1000E+02
      0.679  0.0000E+00  0.1000E+02
      0.750  0.0000E+00  0.1000E+02
      0.822  0.0000E+00  0.1000E+02
      0.893  0.0000E+00  0.1000E+02
      0.965  0.0000E+00  0.1000E+02
      1.036  0.0000E+00  0.1000E+02
      1.108  0.0000E+00  0.1000E+02
      1.180  0.0000E+00  0.1000E+02
      1.251  0.0000E+00  0.1000E+02
      1.323  0.0000E+00  0.1000E+02
      1.394  0.0000E+00  0.1000E+02
      1.466  0.0000E+00  0.1000E+02
      1.537  0.0000E+00  0.1000E+02
      1.609  0.0000E+00  0.1000E+02
      1.680  0.0000E+00  0.1000E+02
      1.752  0.0000E+00  0.1000E+02
      1.823  0.0000E+00  0.1000E+02
      1.895  0.0000E+00  0.1000E+02
      1.966  0.0000E+00  0.1000E+02
      2.038  0.0000E+00  0.1000E+02
      2.109  0.0000E+00  0.1000E+02
      2.181  0.1896E-09  0.1000E+02
      2.252  0.3640E-04  0.1000E+02
      2.324  0.1356E+00  0.1001E+02
      2.395  0.1181E+02  0.1085E+02
      2.467  0.3786E+02  0.1356E+02
      2.538  0.6098E+01  0.1400E+02
      2.610  0.3212E-01  0.1400E+02
      2.681  0.3732E-05  0.1400E+02
      2.753  0.2439E-04  0.1400E+02
      2.824  0.8123E-01  0.1401E+02
      2.896  0.6379E+01  0.1446E+02
      2.967  0.1874E+02  0.1580E+02
      3.039  0.2756E+01  0.1600E+02
      3.110  0.1305E-01  0.1600E+02
      3.182  0.1354E-05  0.1600E+02
      3.253  0.2664E-11  0.1600E+02
      3.325  0.0000E+00  0.1600E+02
      3.396  0.0000E+00  0.1600E+02
      3.468  0.0000E+00  0.1600E+02
      3.539  0.0000E+00  0.1600E+02
      3.611  0.0000E+00  0.1600E+02
      3.682  0.0000E+00  0.1600E+02
      3.754  0.0000E+00  0.1600E+02
      3.826  0.0000E+00  0.1600E+02
      3.897  0.0000E+00  0.1600E+02
      3.89703928    -17.55718443  301     -8.61345492      1.00000000
    -17.557  0.0000E+00  0.0000E+00  0.0000E+00  0.0000E+00  0.0000E+00  0.0000E+00  0.0000E+00  0.0000E+00  0.0000E+00
    -17.486  0.0000E+00  0.0000E+00  0.0000E+00  0.0000E+00  0.0000E+00  0.0000E+00  0.0000E+00  0.0000E+00  0.0000E+00
    -17.414  0.0000E+00  0.0000E+00  0.0000E+00  0.0000E+00  0.0000E+00  0.0000E+00  0.0000E+00  0.0000E+00  0.0000E+00
    -17.343  0.0000E+00  0.0000E+00  0.0000E+00  0.0000E+00  0.0000E+00  0.0000E+00  0.0000E+00  0.0000E+00  0.0000E+00
    -17.271  0.0000E+00  0.0000E+00  0.0000E+00  0.0000E+00  0.0000E+00  0.0000E+00  0.0000E+00  0.0000E+00  0.0000E+00
    -17.200  0.0000E+00  0.0000E+00  0.0000E+00  0.0000E+00  0.0000E+00  0.0000E+00  0.0000E+00  0.0000E+00  0.0000E+00
    -17.128  0.0000E+00  0.0000E+00  0.0000E+00  0.0000E+00  0.0000E+00  0.0000E+00  0.0000E+00  0.0000E+00  0.0000E+00
    -17.057  0.0000E+00  0.0000E+00  0.0000E+00  0.0000E+00  0.0000E+00  0.0000E+00  0.0000E+00  0.0000E+00  0.0000E+00
    -16.985  0.0000E+00  0.0000E+00  0.0000E+00  0.0000E+00  0.0000E+00  0.0000E+00  0.0000E+00  0.0000E+00  0.0000E+00
    -16.914  0.0000E+00  0.0000E+00  0.0000E+00  0.0000E+00  0.0000E+00  0.0000E+00  0.0000E+00  0.0000E+00  0.0000E+00
    -16.842  0.1106E-11  0.3798E-30  0.2428E-31  0.6082E-30  0.0000E+00  0.0000E+00  0.0000E+00  0.0000E+00  0.0000E+00
    -16.771  0.5623E-06  0.1931E-24  0.1234E-25  0.3092E-24  0.0000E+00  0.0000E+00  0.0000E+00  0.0000E+00  0.0000E+00
    -16.699  0.5421E-02  0.1861E-20  0.1190E-21  0.2981E-20  0.0000E+00  0.0000E+00  0.0000E+00  0.0000E+00  0.0000E+00
    -16.628  0.1145E+01  0.3931E-18  0.2513E-19  0.6296E-18  0.0000E+00  0.0000E+00  0.0000E+00  0.0000E+00  0.0000E+00
    -16.556  0.7784E+01  0.2673E-17  0.1709E-18  0.4281E-17  0.0000E+00  0.0000E+00  0.0000E+00  0.0000E+00  0.0000E+00
    -16.484  0.2650E+01  0.9100E-18  0.5817E-19  0.1457E-17  0.0000E+00  0.0000E+00  0.0000E+00  0.0000E+00  0.0000E+00
    -16.413  0.3375E-01  0.1159E-19  0.7408E-21  0.1856E-19  0.0000E+00  0.0000E+00  0.0000E+00  0.0000E+00  0.0000E+00
    -16.341  0.1013E-04  0.3479E-23  0.2224E-24  0.5572E-23  0.0000E+00  0.0000E+00  0.0000E+00  0.0000E+00  0.0000E+00
    -16.270  0.5923E-10  0.2034E-28  0.1300E-29  0.3257E-28  0.0000E+00  0.0000E+00  0.0000E+00  0.0000E+00  0.0000E+00
    -16.198  0.0000E+00  0.0000E+00  0.0000E+00  0.0000E+00  0.0000E+00  0.0000E+00  0.0000E+00  0.0000E+00  0.0000E+00
    -16.127  0.0000E+00  0.0000E+00  0.0000E+00  0.0000E+00  0.0000E+00  0.0000E+00  0.0000E+00  0.0000E+00  0.0000E+00
    -16.055  0.0000E+00  0.0000E+00  0.0000E+00  0.0000E+00  0.0000E+00  0.0000E+00  0.0000E+00  0.0000E+00  0.0000E+00
    -15.984  0.0000E+00  0.0000E+00  0.0000E+00  0.0000E+00  0.0000E+00  0.0000E+00  0.0000E+00  0.0000E+00  0.0000E+00
    -15.912  0.0000E+00  0.0000E+00  0.0000E+00  0.0000E+00  0.0000E+00  0.0000E+00  0.0000E+00  0.0000E+00  0.0000E+00
    -15.841  0.0000E+00  0.0000E+00  0.0000E+00  0.0000E+00  0.0000E+00  0.0000E+00  0.0000E+00  0.0000E+00  0.0000E+00
    -15.769  0.0000E+00  0.0000E+00  0.0000E+00  0.0000E+00  0.0000E+00  0.0000E+00  0.0000E+00  0.0000E+00  0.0000E+00
    -15.698  0.0000E+00  0.0000E+00  0.0000E+00  0.0000E+00  0.0000E+00  0.0000E+00  0.0000E+00  0.0000E+00  0.0000E+00
    -15.626  0.0000E+00  0.0000E+00  0.0000E+00  0.0000E+00  0.0000E+00  0.0000E+00  0.0000E+00  0.0000E+00  0.0000E+00
    -15.555  0.0000E+00  0.0000E+00  0.0000E+00  0.0000E+00  0.0000E+00  0.0000E+00  0.0000E+00  0.0000E+00  0.0000E+00
    -15.483  0.0000E+00  0.0000E+00  0.0000E+00  0.0000E+00  0.0000E+00  0.0000E+00  0.0000E+00  0.0000E+00  0.0000E+00
    -15.412  0.0000E+00  0.0000E+00  0.0000E+00  0.0000E+00  0.0000E+00  0.0000E+00  0.0000E+00  0.0000E+00  0.0000E+00
    -15.340  0.0000E+00  0.0000E+00  0.0000E+00  0.0000E+00  0.0000E+00  0.0000E+00  0.0000E+00  0.0000E+00  0.0000E+00
    -15.269  0.0000E+00  0.0000E+00  0.0000E+00  0.0000E+00  0.0000E+00  0.0000E+00  0.0000E+00  0.0000E+00  0.0000E+00
    -15.197  0.0000E+00  0.0000E+00  0.0000E+00  0.0000E+00  0.0000E+00  0.0000E+00  0.0000E+00  0.0000E+00  0.0000E+00
    -15.126  0.0000E+00  0.0000E+00  0.0000E+00  0.0000E+00  0.0000E+00  0.0000E+00  0.0000E+00  0.0000E+00  0.0000E+00
    -15.054  0.0000E+00  0.0000E+00  0.0000E+00  0.0000E+00  0.0000E+00  0.0000E+00  0.0000E+00  0.0000E+00  0.0000E+00
    -14.983  0.0000E+00  0.0000E+00  0.0000E+00  0.0000E+00  0.0000E+00  0.0000E+00  0.0000E+00  0.0000E+00  0.0000E+00
    -14.911  0.0000E+00  0.0000E+00  0.0000E+00  0.0000E+00  0.0000E+00  0.0000E+00  0.0000E+00  0.0000E+00  0.0000E+00
    -14.840  0.0000E+00  0.0000E+00  0.0000E+00  0.0000E+00  0.0000E+00  0.0000E+00  0.0000E+00  0.0000E+00  0.0000E+00
    -14.768  0.0000E+00  0.0000E+00  0.0000E+00  0.0000E+00  0.0000E+00  0.0000E+00  0.0000E+00  0.0000E+00  0.0000E+00
    -14.697  0.0000E+00  0.0000E+00  0.0000E+00  0.0000E+00  0.0000E+00  0.0000E+00  0.0000E+00  0.0000E+00  0.0000E+00
    -14.625  0.0000E+00  0.0000E+00  0.0000E+00  0.0000E+00  0.0000E+00  0.0000E+00  0.0000E+00  0.0000E+00  0.0000E+00
    -14.554  0.0000E+00  0.0000E+00  0.0000E+00  0.0000E+00  0.0000E+00  0.0000E+00  0.0000E+00  0.0000E+00  0.0000E+00
    -14.482  0.0000E+00  0.0000E+00  0.0000E+00  0.0000E+00  0.0000E+00  0.0000E+00  0.0000E+00  0.0000E+00  0.0000E+00
    -14.411  0.0000E+00  0.0000E+00  0.0000E+00  0.0000E+00  0.0000E+00  0.0000E+00  0.0000E+00  0.0000E+00  0.0000E+00
    -14.339  0.0000E+00  0.0000E+00  0.0000E+00  0.0000E+00  0.0000E+00  0.0000E+00  0.0000E+00  0.0000E+00  0.0000E+00
    -14.268  0.0000E+00  0.0000E+00  0.0000E+00  0.0000E+00  0.0000E+00  0.0000E+00  0.0000E+00  0.0000E+00  0.0000E+00
    -14.196  0.0000E+00  0.0000E+00  0.0000E+00  0.0000E+00  0.0000E+00  0.0000E+00  0.0000E+00  0.0000E+00  0.0000E+00
    -14.125  0.0000E+00  0.0000E+00  0.0000E+00  0.0000E+00  0.0000E+00  0.0000E+00  0.0000E+00  0.0000E+00  0.0000E+00
    -14.053  0.0000E+00  0.0000E+00  0.0000E+00  0.0000E+00  0.0000E+00  0.0000E+00  0.0000E+00  0.0000E+00  0.0000E+00
    -13.981  0.0000E+00  0.0000E+00  0.0000E+00  0.0000E+00  0.0000E+00  0.0000E+00  0.0000E+00  0.0000E+00  0.0000E+00
    -13.910  0.0000E+00  0.0000E+00  0.0000E+00  0.0000E+00  0.0000E+00  0.0000E+00  0.0000E+00  0.0000E+00  0.0000E+00
    -13.838  0.0000E+00  0.0000E+00  0.0000E+00  0.0000E+00  0.0000E+00  0.0000E+00  0.0000E+00  0.0000E+00  0.0000E+00
    -13.767  0.0000E+00  0.0000E+00  0.0000E+00  0.0000E+00  0.0000E+00  0.0000E+00  0.0000E+00  0.0000E+00  0.0000E+00
    -13.695  0.0000E+00  0.0000E+00  0.0000E+00  0.0000E+00  0.0000E+00  0.0000E+00  0.0000E+00  0.0000E+00  0.0000E+00
    -13.624  0.0000E+00  0.0000E+00  0.0000E+00  0.0000E+00  0.0000E+00  0.0000E+00  0.0000E+00  0.0000E+00  0.0000E+00
    -13.552  0.0000E+00  0.0000E+00  0.0000E+00  0.0000E+00  0.0000E+00  0.0000E+00  0.0000E+00  0.0000E+00  0.0000E+00
    -13.481  0.0000E+00  0.0000E+00  0.0000E+00  0.0000E+00  0.0000E+00  0.0000E+00  0.0000E+00  0.0000E+00  0.0000E+00
    -13.409  0.0000E+00  0.0000E+00  0.0000E+00  0.0000E+00  0.0000E+00  0.0000E+00  0.0000E+00  0.0000E+00  0.0000E+00
    -13.338  0.0000E+00  0.0000E+00  0.0000E+00  0.0000E+00  0.0000E+00  0.0000E+00  0.0000E+00  0.0000E+00  0.0000E+00
    -13.266  0.0000E+00  0.0000E+00  0.0000E+00  0.0000E+00  0.0000E+00  0.0000E+00  0.0000E+00  0.0000E+00  0.0000E+00
    -13.195  0.0000E+00  0.0000E+00  0.0000E+00  0.0000E+00  0.0000E+00  0.0000E+00  0.0000E+00  0.0000E+00  0.0000E+00
    -13.123  0.0000E+00  0.0000E+00  0.0000E+00  0.0000E+00  0.0000E+00  0.0000E+00  0.0000E+00  0.0000E+00  0.0000E+00
    -13.052  0.0000E+00  0.0000E+00  0.0000E+00  0.0000E+00  0.0000E+00  0.0000E+00  0.0000E+00  0.0000E+00  0.0000E+00
    -12.980  0.0000E+00  0.0000E+00  0.0000E+00  0.0000E+00  0.0000E+00  0.0000E+00  0.0000E+00  0.0000E+00  0.0000E+00
    -12.909  0.0000E+00  0.0000E+00  0.0000E+00  0.0000E+00  0.0000E+00  0.0000E+00  0.0000E+00  0.0000E+00  0.0000E+00
    -12.837  0.0000E+00  0.0000E+00  0.0000E+00  0.0000E+00  0.0000E+00  0.0000E+00  0.0000E+00  0.0000E+00  0.0000E+00
    -12.766  0.0000E+00  0.0000E+00  0.0000E+00  0.0000E+00  0.0000E+00  0.0000E+00  0.0000E+00  0.0000E+00  0.0000E+00
    -12.694  0.0000E+00  0.0000E+00  0.0000E+00  0.0000E+00  0.0000E+00  0.0000E+00  0.0000E+00  0.0000E+00  0.0000E+00
    -12.623  0.0000E+00  0.0000E+00  0.0000E+00  0.0000E+00  0.0000E+00  0.0000E+00  0.0000E+00  0.0000E+00  0.0000E+00
    -12.551  0.0000E+00  0.0000E+00  0.0000E+00  0.0000E+00  0.0000E+00  0.0000E+00  0.0000E+00  0.0000E+00  0.0000E+00
    -12.480  0.0000E+00  0.0000E+00  0.0000E+00  0.0000E+00  0.0000E+00  0.0000E+00  0.0000E+00  0.0000E+00  0.0000E+00
    -12.408  0.0000E+00  0.0000E+00  0.0000E+00  0.0000E+00  0.0000E+00  0.0000E+00  0.0000E+00  0.0000E+00  0.0000E+00
    -12.337  0.0000E+00  0.0000E+00  0.0000E+00  0.0000E+00  0.0000E+00  0.0000E+00  0.0000E+00  0.0000E+00  0.0000E+00
    -12.265  0.0000E+00  0.0000E+00  0.0000E+00  0.0000E+00  0.0000E+00  0.0000E+00  0.0000E+00  0.0000E+00  0.0000E+00
    -12.194  0.0000E+00  0.0000E+00  0.0000E+00  0.0000E+00  0.0000E+00  0.0000E+00  0.0000E+00  0.0000E+00  0.0000E+00
    -12.122  0.0000E+00  0.0000E+00  0.0000E+00  0.0000E+00  0.0000E+00  0.0000E+00  0.0000E+00  0.0000E+00  0.0000E+00
    -12.051  0.0000E+00  0.0000E+00  0.0000E+00  0.0000E+00  0.0000E+00  0.0000E+00  0.0000E+00  0.0000E+00  0.0000E+00
    -11.979  0.0000E+00  0.0000E+00  0.0000E+00  0.0000E+00  0.0000E+00  0.0000E+00  0.0000E+00  0.0000E+00  0.0000E+00
    -11.908  0.0000E+00  0.0000E+00  0.0000E+00  0.0000E+00  0.0000E+00  0.0000E+00  0.0000E+00  0.0000E+00  0.0000E+00
    -11.836  0.0000E+00  0.0000E+00  0.0000E+00  0.0000E+00  0.0000E+00  0.0000E+00  0.0000E+00  0.0000E+00  0.0000E+00
    -11.765  0.0000E+00  0.0000E+00  0.0000E+00  0.0000E+00  0.0000E+00  0.0000E+00  0.0000E+00  0.0000E+00  0.0000E+00
    -11.693  0.0000E+00  0.0000E+00  0.0000E+00  0.0000E+00  0.0000E+00  0.0000E+00  0.0000E+00  0.0000E+00  0.0000E+00
    -11.622  0.0000E+00  0.0000E+00  0.0000E+00  0.0000E+00  0.0000E+00  0.0000E+00  0.0000E+00  0.0000E+00  0.0000E+00
    -11.550  0.0000E+00  0.0000E+00  0.0000E+00  0.0000E+00  0.0000E+00  0.0000E+00  0.0000E+00  0.0000E+00  0.0000E+00
    -11.478  0.0000E+00  0.0000E+00  0.0000E+00  0.0000E+00  0.0000E+00  0.0000E+00  0.0000E+00  0.0000E+00  0.0000E+00
    -11.407  0.0000E+00  0.0000E+00  0.0000E+00  0.0000E+00  0.0000E+00  0.0000E+00  0.0000E+00  0.0000E+00  0.0000E+00
    -11.335  0.0000E+00  0.0000E+00  0.0000E+00  0.0000E+00  0.0000E+00  0.0000E+00  0.0000E+00  0.0000E+00  0.0000E+00
    -11.264  0.0000E+00  0.0000E+00  0.0000E+00  0.0000E+00  0.0000E+00  0.0000E+00  0.0000E+00  0.0000E+00  0.0000E+00
    -11.192  0.0000E+00  0.0000E+00  0.0000E+00  0.0000E+00  0.0000E+00  0.0000E+00  0.0000E+00  0.0000E+00  0.0000E+00
    -11.121  0.0000E+00  0.0000E+00  0.0000E+00  0.0000E+00  0.0000E+00  0.0000E+00  0.0000E+00  0.0000E+00  0.0000E+00
    -11.049  0.0000E+00  0.0000E+00  0.0000E+00  0.0000E+00  0.0000E+00  0.0000E+00  0.0000E+00  0.0000E+00  0.0000E+00
    -10.978  0.0000E+00  0.0000E+00  0.0000E+00  0.0000E+00  0.0000E+00  0.0000E+00  0.0000E+00  0.0000E+00  0.0000E+00
    -10.906  0.0000E+00  0.0000E+00  0.0000E+00  0.0000E+00  0.0000E+00  0.0000E+00  0.0000E+00  0.0000E+00  0.0000E+00
    -10.835  0.0000E+00  0.0000E+00  0.0000E+00  0.0000E+00  0.0000E+00  0.0000E+00  0.0000E+00  0.0000E+00  0.0000E+00
    -10.763  0.0000E+00  0.0000E+00  0.0000E+00  0.0000E+00  0.0000E+00  0.0000E+00  0.0000E+00  0.0000E+00  0.0000E+00
    -10.692  0.0000E+00  0.0000E+00  0.0000E+00  0.0000E+00  0.0000E+00  0.0000E+00  0.0000E+00  0.0000E+00  0.0000E+00
    -10.620  0.0000E+00  0.0000E+00  0.0000E+00  0.0000E+00  0.0000E+00  0.0000E+00  0.0000E+00  0.0000E+00  0.0000E+00
    -10.549  0.0000E+00  0.0000E+00  0.0000E+00  0.0000E+00  0.0000E+00  0.0000E+00  0.0000E+00  0.0000E+00  0.0000E+00
    -10.477  0.0000E+00  0.0000E+00  0.0000E+00  0.0000E+00  0.0000E+00  0.0000E+00  0.0000E+00  0.0000E+00  0.0000E+00
    -10.406  0.0000E+00  0.0000E+00  0.0000E+00  0.0000E+00  0.0000E+00  0.0000E+00  0.0000E+00  0.0000E+00  0.0000E+00
    -10.334  0.0000E+00  0.0000E+00  0.0000E+00  0.0000E+00  0.0000E+00  0.0000E+00  0.0000E+00  0.0000E+00  0.0000E+00
    -10.263  0.0000E+00  0.0000E+00  0.0000E+00  0.0000E+00  0.0000E+00  0.0000E+00  0.0000E+00  0.0000E+00  0.0000E+00
    -10.191  0.0000E+00  0.0000E+00  0.0000E+00  0.0000E+00  0.0000E+00  0.0000E+00  0.0000E+00  0.0000E+00  0.0000E+00
    -10.120  0.0000E+00  0.0000E+00  0.0000E+00  0.0000E+00  0.0000E+00  0.0000E+00  0.0000E+00  0.0000E+00  0.0000E+00
    -10.048  0.0000E+00  0.0000E+00  0.0000E+00  0.0000E+00  0.0000E+00  0.0000E+00  0.0000E+00  0.0000E+00  0.0000E+00
     -9.977  0.0000E+00  0.0000E+00  0.0000E+00  0.0000E+00  0.0000E+00  0.0000E+00  0.0000E+00  0.0000E+00  0.0000E+00
     -9.905  0.0000E+00  0.0000E+00  0.0000E+00  0.0000E+00  0.0000E+00  0.0000E+00  0.0000E+00  0.0000E+00  0.0000E+00
     -9.834  0.0000E+00  0.0000E+00  0.0000E+00  0.0000E+00  0.0000E+00  0.0000E+00  0.0000E+00  0.0000E+00  0.0000E+00
     -9.762  0.0000E+00  0.0000E+00  0.0000E+00  0.0000E+00  0.0000E+00  0.0000E+00  0.0000E+00  0.0000E+00  0.0000E+00
     -9.691  0.0000E+00  0.0000E+00  0.0000E+00  0.0000E+00  0.0000E+00  0.0000E+00  0.0000E+00  0.0000E+00  0.0000E+00
     -9.619  0.0000E+00  0.0000E+00  0.0000E+00  0.0000E+00  0.0000E+00  0.0000E+00  0.0000E+00  0.0000E+00  0.0000E+00
     -9.548  0.0000E+00  0.0000E+00  0.0000E+00  0.0000E+00  0.0000E+00  0.0000E+00  0.0000E+00  0.0000E+00  0.0000E+00
     -9.476  0.0000E+00  0.0000E+00  0.0000E+00  0.0000E+00  0.0000E+00  0.0000E+00  0.0000E+00  0.0000E+00  0.0000E+00
     -9.405  0.0000E+00  0.0000E+00  0.0000E+00  0.0000E+00  0.0000E+00  0.0000E+00  0.0000E+00  0.0000E+00  0.0000E+00
     -9.333  0.0000E+00  0.0000E+00  0.0000E+00  0.0000E+00  0.0000E+00  0.0000E+00  0.0000E+00  0.0000E+00  0.0000E+00
     -9.262  0.0000E+00  0.0000E+00  0.0000E+00  0.0000E+00  0.0000E+00  0.0000E+00  0.0000E+00  0.0000E+00  0.0000E+00
     -9.190  0.0000E+00  0.0000E+00  0.0000E+00  0.0000E+00  0.0000E+00  0.0000E+00  0.0000E+00  0.0000E+00  0.0000E+00
     -9.119  0.3560E-27  0.2458E-09  0.2458E-09  0.2458E-09  0.0000E+00  0.0000E+00  0.0000E+00  0.0000E+00  0.0000E+00
     -9.047  0.3704E-22  0.2558E-04  0.2558E-04  0.2558E-04  0.0000E+00  0.0000E+00  0.0000E+00  0.0000E+00  0.0000E+00
     -8.975  0.7611E-19  0.5256E-01  0.5256E-01  0.5256E-01  0.0000E+00  0.0000E+00  0.0000E+00  0.0000E+00  0.0000E+00
     -8.904  0.3843E-17  0.2654E+01  0.2654E+01  0.2654E+01  0.0000E+00  0.0000E+00  0.0000E+00  0.0000E+00  0.0000E+00
     -8.832  0.7767E-17  0.5364E+01  0.5364E+01  0.5364E+01  0.0000E+00  0.0000E+00  0.0000E+00  0.0000E+00  0.0000E+00
     -8.761  0.7674E-18  0.5299E+00  0.5299E+00  0.5299E+00  0.0000E+00  0.0000E+00  0.0000E+00  0.0000E+00  0.0000E+00
     -8.689  0.2286E-20  0.1579E-02  0.1579E-02  0.1579E-02  0.0000E+00  0.0000E+00  0.0000E+00  0.0000E+00  0.0000E+00
     -8.618  0.1452E-24  0.1003E-06  0.1003E-06  0.1003E-06  0.0000E+00  0.0000E+00  0.0000E+00  0.0000E+00  0.0000E+00
     -8.546  0.1742E-30  0.1203E-12  0.1203E-12  0.1203E-12  0.0000E+00  0.0000E+00  0.0000E+00  0.0000E+00  0.0000E+00
     -8.475  0.0000E+00  0.0000E+00  0.0000E+00  0.0000E+00  0.0000E+00  0.0000E+00  0.0000E+00  0.0000E+00  0.0000E+00
     -8.403  0.0000E+00  0.0000E+00  0.0000E+00  0.0000E+00  0.0000E+00  0.0000E+00  0.0000E+00  0.0000E+00  0.0000E+00
     -8.332  0.0000E+00  0.0000E+00  0.0000E+00  0.0000E+00  0.0000E+00  0.0000E+00  0.0000E+00  0.0000E+00  0.0000E+00
     -8.260  0.0000E+00  0.0000E+00  0.0000E+00  0.0000E+00  0.0000E+00  0.0000E+00  0.0000E+00  0.0000E+00  0.0000E+00
     -8.189  0.0000E+00  0.0000E+00  0.0000E+00  0.0000E+00  0.0000E+00  0.0000E+00  0.0000E+00  0.0000E+00  0.0000E+00
     -8.117  0.0000E+00  0.0000E+00  0.0000E+00  0.0000E+00  0.0000E+00  0.0000E+00  0.0000E+00  0.0000E+00  0.0000E+00
     -8.046  0.0000E+00  0.0000E+00  0.0000E+00  0.0000E+00  0.0000E+00  0.0000E+00  0.0000E+00  0.0000E+00  0.0000E+00
     -7.974  0.0000E+00  0.0000E+00  0.0000E+00  0.0000E+00  0.0000E+00  0.0000E+00  0.0000E+00  0.0000E+00  0.0000E+00
     -7.903  0.0000E+00  0.0000E+00  0.0000E+00  0.0000E+00  0.0000E+00  0.0000E+00  0.0000E+00  0.0000E+00  0.0000E+00
     -7.831  0.0000E+00  0.0000E+00  0.0000E+00  0.0000E+00  0.0000E+00  0.0000E+00  0.0000E+00  0.0000E+00  0.0000E+00
     -7.760  0.0000E+00  0.0000E+00  0.0000E+00  0.0000E+00  0.0000E+00  0.0000E+00  0.0000E+00  0.0000E+00  0.0000E+00
     -7.688  0.0000E+00  0.0000E+00  0.0000E+00  0.0000E+00  0.0000E+00  0.0000E+00  0.0000E+00  0.0000E+00  0.0000E+00
     -7.617  0.0000E+00  0.0000E+00  0.0000E+00  0.0000E+00  0.0000E+00  0.0000E+00  0.0000E+00  0.0000E+00  0.0000E+00
     -7.545  0.0000E+00  0.0000E+00  0.0000E+00  0.0000E+00  0.0000E+00  0.0000E+00  0.0000E+00  0.0000E+00  0.0000E+00
     -7.474  0.0000E+00  0.0000E+00  0.0000E+00  0.0000E+00  0.0000E+00  0.0000E+00  0.0000E+00  0.0000E+00  0.0000E+00
     -7.402  0.0000E+00  0.0000E+00  0.0000E+00  0.0000E+00  0.0000E+00  0.0000E+00  0.0000E+00  0.0000E+00  0.0000E+00
     -7.331  0.0000E+00  0.0000E+00  0.0000E+00  0.0000E+00  0.0000E+00  0.0000E+00  0.0000E+00  0.0000E+00  0.0000E+00
     -7.259  0.0000E+00  0.0000E+00  0.0000E+00  0.0000E+00  0.0000E+00  0.0000E+00  0.0000E+00  0.0000E+00  0.0000E+00
     -7.188  0.0000E+00  0.0000E+00  0.0000E+00  0.0000E+00  0.0000E+00  0.0000E+00  0.0000E+00  0.0000E+00  0.0000E+00
     -7.116  0.0000E+00  0.0000E+00  0.0000E+00  0.0000E+00  0.0000E+00  0.0000E+00  0.0000E+00  0.0000E+00  0.0000E+00
     -7.045  0.0000E+00  0.0000E+00  0.0000E+00  0.0000E+00  0.0000E+00  0.0000E+00  0.0000E+00  0.0000E+00  0.0000E+00
     -6.973  0.0000E+00  0.0000E+00  0.0000E+00  0.0000E+00  0.0000E+00  0.0000E+00  0.0000E+00  0.0000E+00  0.0000E+00
     -6.902  0.0000E+00  0.0000E+00  0.0000E+00  0.0000E+00  0.0000E+00  0.0000E+00  0.0000E+00  0.0000E+00  0.0000E+00
     -6.830  0.0000E+00  0.0000E+00  0.0000E+00  0.0000E+00  0.0000E+00  0.0000E+00  0.0000E+00  0.0000E+00  0.0000E+00
     -6.759  0.0000E+00  0.0000E+00  0.0000E+00  0.0000E+00  0.0000E+00  0.0000E+00  0.0000E+00  0.0000E+00  0.0000E+00
     -6.687  0.0000E+00  0.0000E+00  0.0000E+00  0.0000E+00  0.0000E+00  0.0000E+00  0.0000E+00  0.0000E+00  0.0000E+00
     -6.616  0.0000E+00  0.0000E+00  0.0000E+00  0.0000E+00  0.0000E+00  0.0000E+00  0.0000E+00  0.0000E+00  0.0000E+00
     -6.544  0.0000E+00  0.0000E+00  0.0000E+00  0.0000E+00  0.0000E+00  0.0000E+00  0.0000E+00  0.0000E+00  0.0000E+00
     -6.473  0.0000E+00  0.0000E+00  0.0000E+00  0.0000E+00  0.0000E+00  0.0000E+00  0.0000E+00  0.0000E+00  0.0000E+00
     -6.401  0.0000E+00  0.0000E+00  0.0000E+00  0.0000E+00  0.0000E+00  0.0000E+00  0.0000E+00  0.0000E+00  0.0000E+00