    5    5    1    1
  0.5120957E+02  0.6350000E-09  0.6350000E-09  0.6350000E-09  0.5000000E-15
  1.000000000000000E-004
  CAR 
 Screening bandgap                       
      8      1      8
 
  0.0000000E+00  0.0000000E+00  0.0000000E+00  0.1000000E+01
    1      -16.581992   1.000000
    2       -8.886911   1.000000
    3       -8.886911   1.000000
    4       -8.886911   1.000000
    5       -0.786793   0.000000
    6        2.423319   0.000000
    7        2.423319   0.000000
    8        2.921847   0.000000
