       N       E                     dE             d eps       ncg     rms          rms(c)
DAV:   1    -0.238608264533E+02   -0.23861E+02    0.95923E-13     8   0.847E-06    0.213E-07
DAV:   2    -0.238608264533E+02   -0.36380E-11   -0.29488E-12     8   0.189E-06
   1 F= -.23860826E+02 E0= -.23860826E+02  d E =-.865411E-14
