Screening bandgap                       
   1.00000000000000     
     6.350000    0.000000    0.000000
     0.000000    6.350000    0.000000
     0.000000    0.000000    6.350000
   C    H 
     1     4
Direct
  0.500000  0.500000  0.500000
  0.400987  0.400987  0.400987
  0.599013  0.599013  0.400987
  0.400987  0.599013  0.599013
  0.599013  0.400987  0.599013
 
   56   56   56
 0.89886E-04 0.24108E-03 0.46024E-03 0.38151E-03 0.79436E-04 -.64033E-04 0.61598E-04 0.17580E-03 0.72385E-04 -.89564E-04
 -.55247E-04 0.19055E-03 0.48534E-03 0.70993E-03 0.80249E-03 0.69537E-03 0.41294E-03 0.14729E-03 0.69893E-04 0.11707E-03
 0.10855E-03 0.25824E-04 0.32497E-05 0.71637E-04 0.10461E-03 0.44726E-04 -.18180E-05 0.38611E-04 0.81066E-04 0.46792E-04
 0.85787E-05 0.49860E-04 0.10093E-03 0.61877E-04 -.57552E-05 0.23697E-04 0.11468E-03 0.12710E-03 0.75810E-04 0.14110E-03
 0.39042E-03 0.65857E-03 0.75987E-03 0.67340E-03 0.46488E-03 0.18880E-03 -.44840E-04 -.79295E-04 0.71719E-04 0.16146E-03
 0.40431E-04 -.80146E-04 0.77581E-04 0.39457E-03 0.47994E-03 0.25527E-03 0.12421E-03 0.13607E-03 0.30724E-03 0.31486E-03
 0.11923E-03 -.12974E-04 0.53990E-04 0.14562E-03 0.84518E-04 -.49310E-04 -.63575E-04 0.10450E-03 0.38915E-03 0.69609E-03
 0.89294E-03 0.83159E-03 0.52257E-03 0.20031E-03 0.77064E-04 0.98789E-04 0.77539E-04 -.10221E-04 -.31724E-04 0.38723E-04
 0.69721E-04 0.78172E-05 -.31113E-04 0.26745E-04 0.82261E-04 0.44510E-04 -.68365E-05 0.30297E-04 0.93810E-04 0.73061E-04
 0.15375E-04 0.40771E-04 0.11319E-03 0.95019E-04 0.13593E-04 0.66450E-04 0.31947E-03 0.58261E-03 0.65839E-03 0.55539E-03
 0.37509E-03 0.15678E-03 -.43335E-04 -.84412E-04 0.66044E-04 0.19378E-03 0.10670E-03 -.40000E-04 0.62651E-04 0.38590E-03
 0.55074E-03 0.37013E-03 0.14651E-03 0.51687E-04 0.76354E-04 0.97884E-04 0.59098E-04 0.38045E-04 0.79840E-04 0.10955E-03
 0.61599E-04 -.12652E-04 -.22266E-04 0.59764E-04 0.21411E-03 0.40901E-03 0.55986E-03 0.54399E-03 0.34354E-03 0.11374E-03
 0.18333E-04 0.41429E-04 0.52659E-04 0.12582E-04 -.46591E-05 0.26858E-04 0.36041E-04 -.78296E-05 -.32295E-04 0.93794E-05
 0.50499E-04 0.24318E-04 -.21779E-04 -.11048E-04 0.35041E-04 0.51308E-04 0.53041E-04 0.92464E-04 0.12975E-03 0.78521E-04
 -.24695E-04 -.30130E-04 0.11563E-03 0.28725E-03 0.35300E-03 0.31791E-03 0.23743E-03 0.11142E-03 -.35131E-04 -.76216E-04
 0.62035E-04 0.23547E-03 0.23589E-03 0.92423E-04 0.45941E-04 0.19701E-03 0.35439E-03 0.31562E-03 0.10395E-03 0.24955E-04
 -.36410E-04 -.44279E-04 0.33938E-05 0.82119E-04 0.13956E-03 0.12849E-03 0.61771E-04 0.65394E-05 0.81168E-05 0.47081E-04
 0.84697E-04 0.11448E-03 0.14136E-03 0.14279E-03 0.94478E-04 0.21138E-04 -.20319E-04 -.76794E-05 0.29343E-04 0.57139E-04
 0.68502E-04 0.62647E-04 0.34704E-04 -.81457E-07 -.67756E-05 0.21190E-04 0.41570E-04 0.17960E-04 -.25490E-04 -.32336E-04
 0.18077E-04 0.97472E-04 0.16760E-03 0.20015E-03 0.17201E-03 0.84428E-04 -.11364E-04 -.47781E-04 -.11109E-04 0.52308E-04
 0.10283E-03 0.13781E-03 0.14642E-03 0.95884E-04 0.56736E-05 -.17526E-04 0.10613E-03 0.29771E-03 0.37994E-03 0.28293E-03
 0.12455E-03 0.57922E-04 0.96748E-04 0.13648E-03 0.25390E-04 0.21965E-04 -.92666E-05 -.20754E-04 0.27779E-04 0.12326E-03
 0.20299E-03 0.20649E-03 0.13132E-03 0.38083E-04 -.63042E-05 0.90448E-05 0.38946E-04 0.41943E-04 0.25132E-04 0.21458E-04
 0.37496E-04 0.45996E-04 0.30186E-04 0.12819E-04 0.26583E-04 0.66927E-04 0.92836E-04 0.75231E-04 0.31533E-04 0.67626E-05
 0.27055E-04 0.76082E-04 0.11305E-03 0.11215E-03 0.90532E-04 0.99806E-04 0.17966E-03 0.30865E-03 0.40548E-03 0.39420E-03
 0.27527E-03 0.12611E-03 0.27934E-04 -.11840E-05 0.30941E-05 0.12460E-04 0.35659E-04 0.84415E-04 0.13358E-03 0.14179E-03
 0.11293E-03 0.11272E-03 0.20207E-03 0.35571E-03 0.46567E-03 0.43827E-03 0.28451E-03 0.10847E-03 0.94494E-05 0.16807E-05
 -.12945E-04 0.90548E-05 0.28495E-04 0.38352E-04 0.60745E-04 0.11594E-03 0.19165E-03 0.24007E-03 0.21303E-03 0.11243E-03
 0.43922E-05 -.31791E-04 0.23010E-04 0.11213E-03 0.16459E-03 0.16128E-03 0.13264E-03 0.10692E-03 0.83960E-04 0.57796E-04
 0.38094E-04 0.34631E-04 0.35867E-04 0.22698E-04 0.52070E-06 0.20157E-05 0.54165E-04 0.14978E-03 0.25329E-03 0.33054E-03
 0.37623E-03 0.41940E-03 0.49674E-03 0.60543E-03 0.68161E-03 0.64484E-03 0.47900E-03 0.26100E-03 0.96124E-04 0.28128E-04
 0.23106E-04 0.32766E-04 0.49469E-04 0.91709E-04 0.15691E-03 0.21290E-03 0.23680E-03 0.24627E-03 0.28148E-03 0.35734E-03
 0.43755E-03 0.45831E-03 0.38238E-03 0.23490E-03 0.87094E-04 0.11437E-05 0.83307E-05 -.47446E-05 0.84705E-06 0.12270E-04
 0.26103E-04 0.47547E-04 0.88566E-04 0.15053E-03 0.20049E-03 0.18634E-03 0.99826E-04 0.12811E-04 0.16741E-04 0.11865E-03
 0.22404E-03 0.23800E-03 0.16280E-03 0.77087E-04 0.38258E-04 0.35640E-04 0.32687E-04 0.18842E-04 0.62292E-05 0.37493E-06
 -.12339E-05 0.12398E-04 0.69866E-04 0.19374E-03 0.37428E-03 0.56414E-03 0.70178E-03 0.75594E-03 0.75658E-03 0.76820E-03
 0.81519E-03 0.84036E-03 0.75855E-03 0.55338E-03 0.30361E-03 0.11005E-03 0.14372E-04 -.35212E-05 0.26208E-04 0.89943E-04
 0.17272E-03 0.24417E-03 0.27781E-03 0.27619E-03 0.26758E-03 0.27870E-03 0.31061E-03 0.33605E-03 0.31965E-03 0.24847E-03
 0.14683E-03 0.57780E-04 0.35484E-04 -.41383E-08 -.35551E-04 -.43187E-04 -.22792E-04 -.56277E-05 -.24803E-05 0.21317E-04
 0.93468E-04 0.17768E-03 0.20453E-03 0.15711E-03 0.93931E-04 0.77455E-04 0.10386E-03 0.11888E-03 0.86321E-04 0.22566E-04
 -.27861E-04 -.32821E-04 0.85053E-05 0.70129E-04 0.11683E-03 0.12561E-03 0.99059E-04 0.65479E-04 0.73189E-04 0.17649E-03
 0.39658E-03 0.67328E-03 0.87448E-03 0.89739E-03 0.77733E-03 0.67202E-03 0.71338E-03 0.87808E-03 0.10133E-02 0.98012E-03
 0.76268E-03 0.45959E-03 0.19986E-03 0.66125E-04 0.62942E-04 0.13141E-03 0.19753E-03 0.22165E-03 0.20962E-03 0.18549E-03
 0.16573E-03 0.15792E-03 0.16399E-03 0.17289E-03 0.16357E-03 0.12912E-03 0.88293E-04 0.59666E-04 0.26766E-04 0.13667E-04
 -.16324E-04 -.25458E-04 -.92706E-05 0.66101E-05 0.94888E-05 0.12106E-04 0.34719E-04 0.96120E-04 0.20040E-03 0.30229E-03
 0.31337E-03 0.19632E-03 0.41473E-04 -.14294E-04 0.45742E-04 0.97252E-04 0.48897E-04 -.26972E-04 0.61357E-05 0.16195E-03
 0.31419E-03 0.34864E-03 0.26613E-03 0.14282E-03 0.64273E-04 0.11196E-03 0.32903E-03 0.63916E-03 0.84978E-03 0.81397E-03
 0.59220E-03 0.41268E-03 0.46809E-03 0.76634E-03 0.11483E-02 0.14027E-02 0.13855E-02 0.11080E-02 0.74051E-03 0.48469E-03
 0.40366E-03 0.39328E-03 0.33046E-03 0.20922E-03 0.10703E-03 0.65586E-04 0.60152E-04 0.62305E-04 0.69969E-04 0.74415E-04
 0.53127E-04 0.11887E-04 -.90847E-05 0.74755E-05 0.18389E-05 0.13860E-04 0.30382E-04 0.43222E-04 0.26433E-04 0.12890E-04
 0.65420E-04 0.14688E-03 0.14106E-03 0.61812E-04 0.10217E-03 0.35207E-03 0.58420E-03 0.50776E-03 0.18451E-03 -.19949E-04
 0.79716E-04 0.26238E-03 0.24831E-03 0.89498E-04 0.52358E-04 0.22499E-03 0.42853E-03 0.47945E-03 0.37064E-03 0.19471E-03
 0.47509E-04 0.39129E-04 0.24726E-03 0.57667E-03 0.77118E-03 0.66493E-03 0.37203E-03 0.16802E-03 0.24184E-03 0.60714E-03
 0.11505E-02 0.16576E-02 0.18755E-02 0.17126E-02 0.13734E-02 0.11605E-02 0.11263E-02 0.10410E-02 0.73404E-03 0.32811E-03
 0.60782E-04 -.57879E-05 0.13394E-04 0.28957E-04 0.45780E-04 0.64192E-04 0.46520E-04 -.49342E-05 -.34903E-04 -.21055E-04
 -.54630E-05 0.45685E-05 0.52774E-04 0.79468E-04 0.12482E-04 -.54316E-04 0.53515E-04 0.27858E-03 0.33296E-03 0.13828E-03
 0.32556E-04 0.30705E-03 0.71210E-03 0.74190E-03 0.34568E-03 0.87302E-05 0.75394E-04 0.32240E-03 0.36280E-03 0.19758E-03
 0.11781E-03 0.23359E-03 0.37882E-03 0.40846E-03 0.33587E-03 0.19935E-03 0.33159E-04 -.15731E-04 0.21638E-03 0.62139E-03
 0.83211E-03 0.63912E-03 0.24724E-03 0.19545E-04 0.11861E-03 0.50287E-03 0.10810E-02 0.16733E-02 0.19786E-02 0.18588E-02
 0.16052E-02 0.16433E-02 0.19477E-02 0.20153E-02 0.15114E-02 0.70744E-03 0.12872E-03 -.38544E-04 0.26828E-05 0.48127E-04
 0.79433E-04 0.11447E-03 0.11010E-03 0.56264E-04 0.10607E-04 -.10683E-05 0.26109E-05 0.12810E-04 0.65401E-04 0.87939E-04
 -.32373E-05 -.10216E-03 0.56675E-05 0.28379E-03 0.40229E-03 0.21411E-03 0.43149E-04 0.23776E-03 0.60930E-03 0.65919E-03
 0.30117E-03 -.18065E-04 0.29551E-04 0.24215E-03 0.28361E-03 0.17559E-03 0.14688E-03 0.22190E-03 0.25361E-03 0.22492E-03
 0.21971E-03 0.18474E-03 0.36048E-04 -.37827E-04 0.26637E-03 0.84293E-03 0.11482E-02 0.85681E-03 0.28580E-03 -.17077E-04
 0.12486E-03 0.53347E-03 0.10403E-02 0.15145E-02 0.17093E-02 0.15025E-02 0.12688E-02 0.15789E-02 0.23963E-02 0.29275E-02
 0.25040E-02 0.13719E-02 0.35888E-03 -.49406E-04 -.19076E-04 0.96881E-04 0.16745E-03 0.20716E-03 0.19875E-03 0.13123E-03
 0.58301E-04 0.19810E-04 0.92344E-05 0.48204E-04 0.10505E-03 0.12655E-03 0.73778E-04 0.14671E-04 0.69612E-04 0.21158E-03
 0.25547E-03 0.14103E-03 0.73915E-04 0.22399E-03 0.41910E-03 0.36996E-03 0.11975E-03 -.70601E-05 0.10292E-03 0.20878E-03
 0.13678E-03 0.46593E-04 0.11538E-03 0.22276E-03 0.18742E-03 0.10202E-03 0.13819E-03 0.18768E-03 0.68376E-04 -.57438E-06
 0.41595E-03 0.12289E-02 0.17086E-02 0.13552E-02 0.56679E-03 0.13955E-03 0.33930E-03 0.80497E-03 0.11729E-02 0.13592E-02
 0.13064E-02 0.96948E-03 0.68282E-03 0.10618E-02 0.22029E-02 0.32678E-02 0.32609E-02 0.21272E-02 0.76829E-03 0.27572E-04
 -.27750E-04 0.16847E-03 0.29686E-03 0.31874E-03 0.27549E-03 0.18291E-03 0.77849E-04 0.14264E-04 0.19403E-04 0.87949E-04
 0.14898E-03 0.17361E-03 0.19942E-03 0.25193E-03 0.27651E-03 0.19302E-03 0.30515E-04 -.43844E-04 0.93439E-04 0.32274E-03
 0.37822E-03 0.19347E-03 0.24504E-04 0.10865E-03 0.31092E-03 0.30773E-03 0.73073E-04 -.73583E-04 0.50353E-04 0.22987E-03
 0.21986E-03 0.12213E-03 0.14776E-03 0.21008E-03 0.12346E-03 0.11334E-03 0.65402E-03 0.16717E-02 0.23453E-02 0.20313E-02
 0.11217E-02 0.59682E-03 0.86028E-03 0.14137E-02 0.16370E-02 0.14395E-02 0.10390E-02 0.56940E-03 0.22714E-03 0.46344E-03
 0.15222E-02 0.28403E-02 0.33656E-02 0.26328E-02 0.12681E-02 0.27978E-03 0.62435E-04 0.26317E-03 0.41234E-03 0.38511E-03
 0.28782E-03 0.18772E-03 0.85238E-04 0.12760E-04 0.43099E-04 0.10742E-03 0.14898E-03 0.15442E-03 0.22669E-03 0.38983E-03
 0.45944E-03 0.26208E-03 -.59596E-04 -.14004E-03 0.15644E-03 0.51985E-03 0.55488E-03 0.27591E-03 0.73545E-04 0.18693E-03
 0.39619E-03 0.35101E-03 0.65712E-04 -.11323E-03 0.36088E-05 0.22001E-03 0.28286E-03 0.22488E-03 0.21166E-03 0.22248E-03
 0.16815E-03 0.26125E-03 0.89065E-03 0.19759E-02 0.27637E-02 0.26014E-02 0.17866E-02 0.12926E-02 0.16272E-02 0.22879E-02
 0.24575E-02 0.19277E-02 0.11107E-02 0.41413E-03 -.51202E-06 0.53013E-04 0.79066E-03 0.19883E-02 0.28471E-02 0.26850E-02
 0.16838E-02 0.68931E-03 0.29743E-03 0.36975E-03 0.44708E-03 0.34775E-03 0.20581E-03 0.13065E-03 0.82952E-04 0.36211E-04
 0.64526E-04 0.10773E-03 0.11645E-03 0.80535E-04 0.12535E-03 0.31211E-03 0.45517E-03 0.32967E-03 0.37952E-04 -.38281E-04
 0.27802E-03 0.68908E-03 0.76897E-03 0.47845E-03 0.16983E-03 0.11397E-03 0.20428E-03 0.18560E-03 0.26088E-04 -.75699E-04
 0.78126E-05 0.17788E-03 0.27586E-03 0.27700E-03 0.24490E-03 0.19917E-03 0.17305E-03 0.36175E-03 0.10002E-02 0.19790E-02
 0.27360E-02 0.27670E-02 0.22505E-02 0.19468E-02 0.23550E-02 0.31115E-02 0.33857E-02 0.27802E-02 0.16547E-02 0.62659E-03
 0.32682E-04 -.51576E-04 0.41039E-03 0.13079E-02 0.21685E-02 0.24071E-02 0.19016E-02 0.11302E-02 0.63146E-03 0.47825E-03
 0.39624E-03 0.23036E-03 0.79504E-04 0.39927E-04 0.53935E-04 0.52433E-04 0.59973E-04 0.10244E-03 0.10235E-03 0.42386E-04
 0.24341E-04 0.13946E-03 0.29575E-03 0.30989E-03 0.18234E-03 0.14379E-03 0.35701E-03 0.67341E-03 0.79106E-03 0.60469E-03
 0.29379E-03 0.81891E-04 0.17446E-04 0.14351E-04 0.10408E-04 0.15616E-04 0.49621E-04 0.10323E-03 0.15741E-03 0.19452E-03
 0.19183E-03 0.15247E-03 0.16651E-03 0.40148E-03 0.96165E-03 0.17200E-02 0.23314E-02 0.25097E-02 0.23469E-02 0.22983E-02
 0.27388E-02 0.35105E-02 0.39928E-02 0.36788E-02 0.26479E-02 0.14491E-02 0.60958E-03 0.33330E-03 0.56657E-03 0.11350E-02
 0.17547E-02 0.20862E-02 0.19519E-02 0.14873E-02 0.98495E-03 0.61008E-03 0.33814E-03 0.12360E-03 -.31018E-05 -.22981E-04
 0.62008E-05 0.29839E-04 0.33658E-04 0.91529E-04 0.10861E-03 0.60622E-04 0.10117E-04 0.39266E-04 0.13977E-03 0.21962E-03
 0.22807E-03 0.22604E-03 0.30260E-03 0.45340E-03 0.58074E-03 0.59991E-03 0.51125E-03 0.37544E-03 0.25499E-03 0.18316E-03
 0.15550E-03 0.13605E-03 0.92595E-04 0.38157E-04 0.18892E-04 0.51886E-04 0.10206E-03 0.14525E-03 0.23571E-03 0.47445E-03
 0.90061E-03 0.14260E-02 0.18834E-02 0.21495E-02 0.22527E-02 0.23814E-02 0.27487E-02 0.33770E-02 0.39950E-02 0.41998E-02
 0.37837E-02 0.29186E-02 0.20165E-02 0.14233E-02 0.12386E-02 0.13616E-02 0.16222E-02 0.18531E-02 0.19129E-02 0.17242E-02
 0.13160E-02 0.81490E-03 0.37585E-03 0.99145E-04 -.12008E-04 -.28480E-04 -.22143E-04 -.83106E-05 0.85330E-05 0.65398E-04
 0.90714E-04 0.60129E-04 0.21366E-04 0.32414E-04 0.95496E-04 0.16562E-03 0.20169E-03 0.19528E-03 0.17144E-03 0.18385E-03
 0.29359E-03 0.51570E-03 0.77490E-03 0.93601E-03 0.90393E-03 0.70115E-03 0.44422E-03 0.24493E-03 0.13537E-03 0.80969E-04
 0.48708E-04 0.48389E-04 0.11033E-03 0.24199E-03 0.42366E-03 0.64343E-03 0.91715E-03 0.12618E-02 0.16547E-02 0.20304E-02
 0.23232E-02 0.25233E-02 0.27070E-02 0.30070E-02 0.35079E-02 0.41209E-02 0.45669E-02 0.45454E-02 0.39757E-02 0.30822E-02
 0.22329E-02 0.16941E-02 0.15217E-02 0.16126E-02 0.17868E-02 0.18376E-02 0.16110E-02 0.11210E-02 0.56771E-03 0.17994E-03
 0.26318E-04 0.30787E-05 -.74107E-05 -.19083E-04 -.77771E-05 0.27870E-04 0.43598E-04 0.12489E-04 -.53360E-06 0.68324E-04
 0.18778E-03 0.27141E-03 0.27336E-03 0.20628E-03 0.10382E-03 0.27377E-04 0.93641E-04 0.40987E-03 0.92750E-03 0.13913E-02
 0.15055E-02 0.11927E-02 0.68095E-03 0.30713E-03 0.22191E-03 0.29761E-03 0.32568E-03 0.26504E-03 0.25315E-03 0.39444E-03
 0.61937E-03 0.79531E-03 0.92319E-03 0.11503E-02 0.15916E-02 0.21887E-02 0.27439E-02 0.30561E-02 0.30554E-02 0.29039E-02
 0.29774E-02 0.36028E-02 0.46759E-02 0.55778E-02 0.56211E-02 0.46524E-02 0.31847E-02 0.19379E-02 0.13111E-02 0.12646E-02
 0.15328E-02 0.18124E-02 0.18379E-02 0.14890E-02 0.90086E-03 0.37586E-03 0.11185E-03 0.53367E-04 0.35714E-04 -.10176E-05
 -.20593E-04 -.26148E-05 0.12858E-04 -.10438E-04 0.93127E-05 0.16946E-03 0.42126E-03 0.59339E-03 0.57144E-03 0.39249E-03
 0.17064E-03 0.12929E-04 0.34140E-04 0.35211E-03 0.94783E-03 0.15394E-02 0.17254E-02 0.13543E-02 0.72480E-03 0.32784E-03
 0.36684E-03 0.59261E-03 0.64161E-03 0.46227E-03 0.32075E-03 0.42378E-03 0.66894E-03 0.82397E-03 0.86295E-03 0.10238E-02
 0.15503E-02 0.24385E-02 0.34046E-02 0.40305E-02 0.40067E-02 0.34197E-02 0.28635E-02 0.30779E-02 0.42489E-02 0.56634E-02
 0.62266E-02 0.54159E-02 0.36969E-02 0.20239E-02 0.10566E-02 0.86888E-03 0.11871E-02 0.16631E-02 0.19567E-02 0.18248E-02
 0.12947E-02 0.67339E-03 0.26880E-03 0.12311E-03 0.74561E-04 0.15647E-04 -.21510E-04 -.14581E-04 0.12940E-04 0.31079E-04
 0.11199E-03 0.36619E-03 0.75487E-03 0.10499E-02 0.10388E-02 0.73567E-03 0.35081E-03 0.10265E-03 0.11839E-03 0.44985E-03
 0.10302E-02 0.15781E-02 0.17046E-02 0.12798E-02 0.65302E-03 0.35018E-03 0.51281E-03 0.75896E-03 0.66941E-03 0.30095E-03
 0.93691E-04 0.32690E-03 0.82087E-03 0.11997E-02 0.13283E-02 0.14331E-02 0.18744E-02 0.28393E-02 0.41363E-02 0.51889E-02
 0.53566E-02 0.45121E-02 0.33553E-02 0.29531E-02 0.37669E-02 0.51437E-02 0.58746E-02 0.52711E-02 0.36667E-02 0.19646E-02
 0.87208E-03 0.57277E-03 0.88524E-03 0.14819E-02 0.19769E-02 0.20445E-02 0.16231E-02 0.97389E-03 0.44628E-03 0.18227E-03
 0.83368E-04 0.20588E-04 0.37877E-05 -.10845E-04 0.74121E-05 0.66475E-04 0.21990E-03 0.55459E-03 0.10389E-02 0.14337E-02
 0.14638E-02 0.10993E-02 0.60626E-03 0.31177E-03 0.37729E-03 0.77639E-03 0.13452E-02 0.17858E-02 0.17763E-02 0.12743E-02
 0.67257E-03 0.45433E-03 0.64006E-03 0.74617E-03 0.40360E-03 -.10705E-03 -.96885E-04 0.79246E-03 0.22136E-02 0.34496E-02
 0.40113E-02 0.39501E-02 0.37726E-02 0.40785E-02 0.50645E-02 0.62125E-02 0.65991E-02 0.57609E-02 0.42836E-02 0.33576E-02
 0.36479E-02 0.46675E-02 0.53001E-02 0.48403E-02 0.34792E-02 0.19412E-02 0.86177E-03 0.49583E-03 0.76948E-03 0.13964E-02
 0.19711E-02 0.21333E-02 0.17781E-02 0.11205E-02 0.51184E-03 0.16649E-03 0.54491E-04 0.28802E-04 0.43181E-04 0.68526E-05
 -.91303E-05 0.36203E-04 0.20413E-03 0.57328E-03 0.11059E-02 0.15591E-02 0.16475E-02 0.13316E-02 0.88508E-03 0.65740E-03
 0.81305E-03 0.12831E-02 0.18431E-02 0.21843E-02 0.20552E-02 0.15061E-02 0.94801E-03 0.77676E-03 0.90027E-03 0.82142E-03
 0.32806E-03 -.82978E-06 0.83212E-03 0.32945E-02 0.67573E-02 0.98334E-02 0.11277E-01 0.10748E-01 0.89937E-02 0.73301E-02
 0.67097E-02 0.70161E-02 0.72616E-02 0.66066E-02 0.52227E-02 0.40896E-02 0.39591E-02 0.46156E-02 0.51551E-02 0.48578E-02
 0.37241E-02 0.23018E-02 0.11926E-02 0.72592E-03 0.90483E-03 0.14702E-02 0.20095E-02 0.21454E-02 0.17552E-02 0.10494E-02
 0.40301E-03 0.64700E-04 0.78437E-05 0.44640E-04 0.65423E-04 0.41697E-04 0.13296E-04 -.31858E-05 0.90797E-04 0.42755E-03
 0.96662E-03 0.14332E-02 0.15577E-02 0.13495E-02 0.10811E-02 0.10345E-02 0.13136E-02 0.18341E-02 0.23740E-02 0.26422E-02
 0.24560E-02 0.19512E-02 0.15266E-02 0.14440E-02 0.15080E-02 0.13184E-02 0.96553E-03 0.14127E-02 0.39789E-02 0.91951E-02
 0.15984E-01 0.21946E-01 0.24680E-01 0.23248E-01 0.18741E-01 0.13511E-01 0.96463E-02 0.78002E-02 0.71987E-02 0.66689E-02
 0.57177E-02 0.47631E-02 0.44646E-02 0.49204E-02 0.55180E-02 0.54995E-02 0.46103E-02 0.32264E-02 0.19710E-02 0.12808E-02
 0.12441E-02 0.16493E-02 0.20917E-02 0.21535E-02 0.16721E-02 0.88468E-03 0.23045E-03 -.37662E-04 -.16537E-04 0.55292E-04
 0.63717E-04 0.81802E-04 0.81610E-04 0.19593E-04 0.33190E-04 0.32578E-03 0.84600E-03 0.12665E-02 0.13468E-02 0.11932E-02
 0.11037E-02 0.12741E-02 0.17179E-02 0.23314E-02 0.29019E-02 0.31497E-02 0.29557E-02 0.25533E-02 0.23337E-02 0.23964E-02
 0.24254E-02 0.21871E-02 0.22272E-02 0.40213E-02 0.92063E-02 0.18233E-01 0.29355E-01 0.38926E-01 0.43185E-01 0.40492E-01
 0.32328E-01 0.22283E-01 0.13863E-01 0.87619E-02 0.66118E-02 0.59610E-02 0.55569E-02 0.50635E-02 0.48663E-02 0.52894E-02
 0.60203E-02 0.63131E-02 0.56940E-02 0.43648E-02 0.29437E-02 0.19586E-02 0.16108E-02 0.17944E-02 0.21476E-02 0.21908E-02
 0.16722E-02 0.82892E-03 0.16705E-03 -.53326E-04 -.10316E-06 0.57485E-04 0.62164E-04 0.95423E-04 0.11137E-03 0.65880E-04
 0.12037E-03 0.46714E-03 0.98386E-03 0.12978E-02 0.12342E-02 0.10214E-02 0.10079E-02 0.13425E-02 0.19790E-02 0.27844E-02
 0.35066E-02 0.38206E-02 0.36359E-02 0.32885E-02 0.32004E-02 0.33435E-02 0.32788E-02 0.29288E-02 0.33354E-02 0.65696E-02
 0.14611E-01 0.27736E-01 0.43397E-01 0.56653E-01 0.62441E-01 0.58455E-01 0.46541E-01 0.31503E-01 0.18300E-01 0.97209E-02
 0.58172E-02 0.48715E-02 0.49314E-02 0.49585E-02 0.50044E-02 0.54698E-02 0.62572E-02 0.67033E-02 0.62549E-02 0.50040E-02
 0.35183E-02 0.23419E-02 0.17541E-02 0.17679E-02 0.20992E-02 0.22301E-02 0.17957E-02 0.96470E-03 0.26488E-03 0.30163E-05
 0.24765E-04 0.59808E-04 0.71821E-04 0.65803E-04 0.44161E-04 0.68101E-04 0.31680E-03 0.85979E-03 0.14248E-02 0.16123E-02
 0.13567E-02 0.10107E-02 0.97027E-03 0.13811E-02 0.21973E-02 0.32660E-02 0.42476E-02 0.47057E-02 0.45242E-02 0.41216E-02
 0.39918E-02 0.40589E-02 0.37863E-02 0.31525E-02 0.35375E-02 0.75268E-02 0.17492E-01 0.33657E-01 0.52837E-01 0.69024E-01
 0.76100E-01 0.71230E-01 0.56548E-01 0.37807E-01 0.21114E-01 0.10091E-01 0.50351E-02 0.39436E-02 0.43342E-02 0.47123E-02
 0.49200E-02 0.53693E-02 0.60641E-02 0.64268E-02 0.59469E-02 0.47221E-02 0.32890E-02 0.21408E-02 0.15354E-02 0.15318E-02
 0.19231E-02 0.22105E-02 0.19481E-02 0.11907E-02 0.43127E-03 0.55266E-04 0.13946E-04 0.58090E-04 0.72379E-04 0.21023E-04
 -.44932E-04 0.67340E-04 0.55403E-03 0.13391E-02 0.19935E-02 0.21021E-02 0.16991E-02 0.12240E-02 0.11028E-02 0.15141E-02
 0.24685E-02 0.38163E-02 0.51073E-02 0.57496E-02 0.55626E-02 0.50378E-02 0.47871E-02 0.47597E-02 0.43067E-02 0.32610E-02
 0.30090E-02 0.64026E-02 0.16236E-01 0.33019E-01 0.53444E-01 0.70971E-01 0.78838E-01 0.73849E-01 0.58262E-01 0.38332E-01
 0.20721E-01 0.93409E-02 0.44111E-02 0.36308E-02 0.42488E-02 0.46760E-02 0.47960E-02 0.50823E-02 0.55687E-02 0.57110E-02
 0.50683E-02 0.38121E-02 0.24923E-02 0.15343E-02 0.10995E-02 0.12035E-02 0.16792E-02 0.20908E-02 0.19857E-02 0.13301E-02
 0.54903E-03 0.75440E-04 -.24876E-04 0.38483E-04 0.52559E-04 0.61359E-05 -.44598E-04 0.13889E-03 0.75606E-03 0.16742E-02
 0.24118E-02 0.25486E-02 0.21275E-02 0.15808E-02 0.13499E-02 0.16996E-02 0.27510E-02 0.43756E-02 0.60041E-02 0.68683E-02
 0.67050E-02 0.61010E-02 0.58670E-02 0.60482E-02 0.58020E-02 0.45059E-02 0.31179E-02 0.44336E-02 0.11668E-01 0.26003E-01
 0.44687E-01 0.61407E-01 0.69324E-01 0.65058E-01 0.50729E-01 0.32518E-01 0.16935E-01 0.75578E-02 0.41631E-02 0.41625E-02
 0.48676E-02 0.50172E-02 0.48091E-02 0.48328E-02 0.50937E-02 0.50296E-02 0.42492E-02 0.29827E-02 0.17867E-02 0.10330E-02
 0.79428E-03 0.10074E-02 0.14943E-02 0.18912E-02 0.18267E-02 0.12658E-02 0.55799E-03 0.88383E-04 -.42861E-04 0.90623E-05
 0.37687E-04 0.27317E-04 0.24026E-04 0.22083E-03 0.79633E-03 0.16677E-02 0.24487E-02 0.27431E-02 0.24809E-02 0.19498E-02
 0.15875E-02 0.18151E-02 0.29176E-02 0.47976E-02 0.67784E-02 0.79310E-02 0.78959E-02 0.73534E-02 0.74062E-02 0.83295E-02
 0.90506E-02 0.81559E-02 0.56829E-02 0.40127E-02 0.67410E-02 0.16014E-01 0.30219E-01 0.44007E-01 0.51099E-01 0.48139E-01
 0.36807E-01 0.22597E-01 0.11253E-01 0.55491E-02 0.45766E-02 0.55031E-02 0.60247E-02 0.56068E-02 0.49744E-02 0.47981E-02
 0.49383E-02 0.47651E-02 0.39323E-02 0.26980E-02 0.15947E-02 0.97150E-03 0.86662E-03 0.11269E-02 0.15000E-02 0.16889E-02
 0.15001E-02 0.99735E-03 0.44870E-03 0.91849E-04 -.25262E-04 -.17680E-05 0.51630E-04 0.47619E-04 0.39805E-04 0.17348E-03
 0.59057E-03 0.12905E-02 0.20739E-02 0.26187E-02 0.26689E-02 0.22485E-02 0.17544E-02 0.18097E-02 0.28962E-02 0.49514E-02
 0.72358E-02 0.87295E-02 0.89657E-02 0.86385E-02 0.91698E-02 0.11265E-01 0.13772E-01 0.14315E-01 0.11564E-01 0.70739E-02
 0.46815E-02 0.76276E-02 0.15764E-01 0.25189E-01 0.30677E-01 0.29120E-01 0.21552E-01 0.12316E-01 0.59775E-02 0.43294E-02
 0.57687E-02 0.73313E-02 0.73103E-02 0.61257E-02 0.51159E-02 0.49329E-02 0.51379E-02 0.49614E-02 0.41044E-02 0.28661E-02
 0.17805E-02 0.12315E-02 0.12562E-02 0.15605E-02 0.17393E-02 0.15690E-02 0.11242E-02 0.63253E-03 0.26148E-03 0.54084E-04
 -.12465E-04 0.12128E-04 0.74089E-04 0.42823E-04 -.22633E-04 0.19100E-04 0.27155E-03 0.78409E-03 0.15430E-02 0.23343E-02
 0.27303E-02 0.24627E-02 0.18539E-02 0.17148E-02 0.27147E-02 0.48312E-02 0.73172E-02 0.91389E-02 0.97149E-02 0.96374E-02
 0.10582E-01 0.13839E-01 0.18480E-01 0.21328E-01 0.19527E-01 0.13439E-01 0.68210E-02 0.38682E-02 0.59196E-02 0.10661E-01
 0.14121E-01 0.13607E-01 0.94992E-02 0.48236E-02 0.28381E-02 0.44054E-02 0.74477E-02 0.90732E-02 0.82413E-02 0.62714E-02
 0.50143E-02 0.50048E-02 0.54236E-02 0.53072E-02 0.43953E-02 0.30694E-02 0.19351E-02 0.14627E-02 0.16805E-02 0.20968E-02
 0.21074E-02 0.15652E-02 0.84107E-03 0.33207E-03 0.95508E-04 -.53249E-05 -.29640E-04 0.21930E-04 0.66160E-04 0.34299E-04
 -.43144E-04 -.36704E-04 0.12680E-03 0.52412E-03 0.12603E-02 0.21980E-02 0.28058E-02 0.26210E-02 0.19013E-02 0.15724E-02
 0.24424E-02 0.45535E-02 0.71881E-02 0.92948E-02 0.10140E-01 0.10144E-01 0.11136E-01 0.14989E-01 0.21246E-01 0.26408E-01
 0.26447E-01 0.20458E-01 0.11658E-01 0.46872E-02 0.20465E-02 0.28573E-02 0.43588E-02 0.43321E-02 0.26681E-02 0.12377E-02
 0.21143E-02 0.54267E-02 0.89361E-02 0.10076E-01 0.84286E-02 0.59098E-02 0.45985E-02 0.48329E-02 0.54663E-02 0.53848E-02
 0.43834E-02 0.29560E-02 0.17978E-02 0.14351E-02 0.18611E-02 0.24280E-02 0.23873E-02 0.16364E-02 0.73966E-03 0.21150E-03
 0.44129E-04 -.13623E-04 -.40212E-04 0.75185E-05 0.24988E-04 0.48730E-04 0.59365E-04 0.11506E-03 0.28030E-03 0.68082E-03
 0.14485E-02 0.24176E-02 0.30170E-02 0.27688E-02 0.19289E-02 0.14324E-02 0.21483E-02 0.42333E-02 0.70411E-02 0.94290E-02
 0.10422E-01 0.10236E-01 0.10765E-01 0.14285E-01 0.20872E-01 0.27276E-01 0.29108E-01 0.24566E-01 0.15941E-01 0.75428E-02
 0.23886E-02 0.68251E-03 0.70999E-03 0.73061E-03 0.35949E-03 0.64915E-03 0.27902E-02 0.64416E-02 0.94920E-02 0.98929E-02
 0.77286E-02 0.51099E-02 0.39913E-02 0.44539E-02 0.51675E-02 0.50078E-02 0.38919E-02 0.24380E-02 0.13636E-02 0.11290E-02
 0.16688E-02 0.23325E-02 0.23821E-02 0.16931E-02 0.80788E-03 0.26498E-03 0.97351E-04 0.46999E-04 -.55292E-05 -.13260E-04
 -.16503E-04 0.68550E-04 0.19121E-03 0.31862E-03 0.54003E-03 0.10548E-02 0.19404E-02 0.28942E-02 0.33376E-02 0.29308E-02
 0.19946E-02 0.13764E-02 0.19074E-02 0.38919E-02 0.68322E-02 0.94917E-02 0.10603E-01 0.10122E-01 0.98545E-02 0.12198E-01
 0.17665E-01 0.23704E-01 0.26428E-01 0.23775E-01 0.17024E-01 0.94849E-02 0.39546E-02 0.12399E-02 0.45770E-03 0.33867E-03
 0.41259E-03 0.12392E-02 0.34614E-02 0.65457E-02 0.87177E-02 0.85078E-02 0.63122E-02 0.40783E-02 0.33747E-02 0.40269E-02
 0.46843E-02 0.43481E-02 0.31064E-02 0.16926E-02 0.77712E-03 0.64970E-03 0.11709E-02 0.18317E-02 0.20567E-02 0.16550E-02
 0.94861E-03 0.39532E-03 0.15969E-03 0.97613E-04 0.43211E-04 -.17428E-04 -.35030E-04 0.54568E-04 0.20819E-03 0.36024E-03
 0.64153E-03 0.13013E-02 0.23326E-02 0.32846E-02 0.35881E-02 0.30716E-02 0.21276E-02 0.14658E-02 0.17907E-02 0.35070E-02
 0.63324E-02 0.91007E-02 0.10388E-01 0.98507E-02 0.89369E-02 0.98230E-02 0.13293E-01 0.17709E-01 0.20218E-01 0.19032E-01
 0.14641E-01 0.91413E-02 0.46250E-02 0.20201E-02 0.99932E-03 0.73758E-03 0.82776E-03 0.15623E-02 0.32771E-02 0.54607E-02
 0.67963E-02 0.63405E-02 0.45780E-02 0.30437E-02 0.28304E-02 0.36158E-02 0.41890E-02 0.37271E-02 0.24262E-02 0.10704E-02
 0.28137E-03 0.20139E-03 0.62524E-03 0.12033E-02 0.15714E-02 0.15008E-02 0.10475E-02 0.51147E-03 0.17497E-03 0.72504E-04
 0.45209E-04 -.11315E-04 -.31405E-04 0.94974E-05 0.11120E-03 0.23926E-03 0.54001E-03 0.12544E-02 0.23311E-02 0.32823E-02
 0.35747E-02 0.31168E-02 0.22996E-02 0.16941E-02 0.18389E-02 0.31194E-02 0.54469E-02 0.79583E-02 0.94042E-02 0.92353E-02
 0.83002E-02 0.81895E-02 0.97297E-02 0.12154E-01 0.13747E-01 0.13249E-01 0.10698E-01 0.72086E-02 0.40922E-02 0.20820E-02
 0.11203E-02 0.75258E-03 0.72678E-03 0.11961E-02 0.23020E-02 0.36481E-02 0.43990E-02 0.40370E-02 0.29558E-02 0.21591E-02
 0.23113E-02 0.31206E-02 0.36679E-02 0.32950E-02 0.21445E-02 0.90794E-03 0.17314E-03 0.57955E-04 0.34791E-03 0.78636E-03
 0.11640E-02 0.12828E-02 0.10395E-02 0.56952E-03 0.17106E-03 0.15632E-04 0.10941E-04 -.31446E-05 -.54014E-05 -.18045E-04
 0.27186E-04 0.11557E-03 0.36312E-03 0.97656E-03 0.19350E-02 0.28429E-02 0.32412E-02 0.30256E-02 0.24898E-02 0.20554E-02
 0.20866E-02 0.28520E-02 0.43760E-02 0.62206E-02 0.76181E-02 0.80628E-02 0.77945E-02 0.75841E-02 0.79907E-02 0.88402E-02
 0.93947E-02 0.89741E-02 0.74583E-02 0.53261E-02 0.32806E-02 0.17892E-02 0.89640E-03 0.42143E-03 0.27592E-03 0.52806E-03
 0.11658E-02 0.19002E-02 0.23039E-02 0.21725E-02 0.17326E-02 0.14762E-02 0.17474E-02 0.24246E-02 0.29842E-02 0.29297E-02
 0.22200E-02 0.12814E-02 0.60382E-03 0.36693E-03 0.45465E-03 0.69617E-03 0.96188E-03 0.10922E-02 0.93794E-03 0.54408E-03
 0.16747E-03 0.12896E-04 0.27338E-04 0.36324E-04 0.48226E-04 -.10510E-05 0.25809E-04 0.64974E-04 0.18705E-03 0.60326E-03
 0.13601E-02 0.21746E-02 0.26894E-02 0.28120E-02 0.27152E-02 0.26011E-02 0.25990E-02 0.28400E-02 0.34469E-02 0.43888E-02
 0.54414E-02 0.63527E-02 0.70085E-02 0.74219E-02 0.76316E-02 0.76447E-02 0.74185E-02 0.68530E-02 0.58611E-02 0.45075E-02
 0.30442E-02 0.17565E-02 0.79595E-03 0.19215E-03 -.44707E-04 0.70033E-04 0.40993E-03 0.76248E-03 0.97308E-03 0.10244E-02
 0.99003E-03 0.98589E-03 0.11543E-02 0.15697E-02 0.20966E-02 0.24247E-02 0.23353E-02 0.18988E-02 0.13693E-02 0.95096E-03
 0.73025E-03 0.73252E-03 0.89089E-03 0.99077E-03 0.82229E-03 0.43747E-03 0.12566E-03 0.70022E-04 0.14638E-03 0.14222E-03
 0.11298E-03 0.28107E-04 0.51149E-04 0.33419E-04 0.23565E-04 0.28124E-03 0.88145E-03 0.15621E-02 0.20753E-02 0.24791E-02
 0.29227E-02 0.33094E-02 0.33951E-02 0.31604E-02 0.28973E-02 0.29392E-02 0.34510E-02 0.44315E-02 0.57022E-02 0.68494E-02
 0.73988E-02 0.72060E-02 0.65847E-02 0.59344E-02 0.53155E-02 0.44971E-02 0.33519E-02 0.20611E-02 0.94724E-03 0.22851E-03
 -.62183E-04 -.38072E-04 0.11736E-03 0.26443E-03 0.38727E-03 0.52478E-03 0.64156E-03 0.66081E-03 0.63399E-03 0.75984E-03
 0.11647E-02 0.17279E-02 0.21746E-02 0.22845E-02 0.19921E-02 0.14109E-02 0.84039E-03 0.61423E-03 0.77397E-03 0.95631E-03
 0.78299E-03 0.33461E-03 0.44879E-04 0.12162E-03 0.30545E-03 0.28492E-03 0.15116E-03 0.28836E-04 0.40439E-04 0.56524E-05
 -.31903E-04 0.19446E-03 0.70592E-03 0.11869E-02 0.15060E-02 0.19911E-02 0.29135E-02 0.39141E-02 0.42856E-02 0.37714E-02
 0.28251E-02 0.21201E-02 0.20657E-02 0.27702E-02 0.40921E-02 0.55372E-02 0.63951E-02 0.63037E-02 0.56226E-02 0.50244E-02
 0.47363E-02 0.43767E-02 0.35307E-02 0.22800E-02 0.10912E-02 0.33759E-03 0.45007E-04 0.13025E-04 0.53000E-04 0.11061E-03
 0.22594E-03 0.40078E-03 0.52295E-03 0.46858E-03 0.28366E-03 0.19926E-03 0.43131E-03 0.99082E-03 0.16705E-02 0.21394E-02
 0.20879E-02 0.14675E-02 0.67118E-03 0.29254E-03 0.52373E-03 0.89844E-03 0.83653E-03 0.36326E-03 0.28642E-04 0.13671E-03
 0.38363E-03 0.37008E-03 0.14345E-03 0.13647E-04 0.21830E-04 0.61165E-04 0.15462E-03 0.44929E-03 0.85204E-03 0.10406E-02
 0.10228E-02 0.13627E-02 0.25063E-02 0.40195E-02 0.48617E-02 0.44450E-02 0.31782E-02 0.19606E-02 0.14235E-02 0.17229E-02
 0.26945E-02 0.38970E-02 0.46934E-02 0.46835E-02 0.41196E-02 0.36551E-02 0.35979E-02 0.35835E-02 0.30805E-02 0.20538E-02
 0.98236E-03 0.31428E-03 0.81713E-04 0.39008E-04 0.14604E-04 0.37106E-04 0.18070E-03 0.38921E-03 0.49210E-03 0.37829E-03
 0.12543E-03 -.52909E-04 0.31339E-04 0.43145E-03 0.10375E-02 0.15693E-02 0.16618E-02 0.11570E-02 0.38374E-03 -.26006E-04
 0.22602E-03 0.74155E-03 0.88331E-03 0.53337E-03 0.16193E-03 0.14708E-03 0.32200E-03 0.32760E-03 0.10540E-03 0.22673E-04
 0.51747E-04 0.22373E-03 0.52352E-03 0.88363E-03 0.11010E-02 0.96587E-03 0.63718E-03 0.73690E-03 0.17799E-02 0.34668E-02
 0.47595E-02 0.48013E-02 0.36880E-02 0.22841E-02 0.14210E-02 0.13705E-02 0.19092E-02 0.26006E-02 0.30047E-02 0.28927E-02
 0.24421E-02 0.21115E-02 0.21598E-02 0.23304E-02 0.21418E-02 0.14635E-02 0.66389E-03 0.17270E-03 0.44333E-04 0.32910E-04