Screening bandgap                       
   1.00000000000000     
     6.350000    0.000000    0.000000
     0.000000    6.350000    0.000000
     0.000000    0.000000    6.350000
   C    H 
     1     4
Direct
  0.500000  0.500000  0.500000
  0.400987  0.400987  0.400987
  0.599013  0.599013  0.400987
  0.400987  0.599013  0.599013
  0.599013  0.400987  0.599013
 
   56   56   56
 0.41104E-04 0.69184E-02 0.26483E-01 0.56245E-01 0.93814E-01 0.13795     0.18828     0.24395     0.30236     0.35905    
 0.40902     0.44859     0.47652     0.49369     0.50145     0.50004     0.48817     0.46402     0.42684     0.37811    
 0.32143     0.26148     0.20256     0.14778     0.99123E-01 0.58204E-01 0.26799E-01 0.68681E-02 0.16265E-04 0.68685E-02
 0.26800E-01 0.58205E-01 0.99124E-01 0.14778     0.20256     0.26148     0.32143     0.37810     0.42684     0.46402    
 0.48817     0.50004     0.50145     0.49369     0.47652     0.44859     0.40902     0.35905     0.30236     0.24395    
 0.18828     0.13795     0.93813E-01 0.56244E-01 0.26483E-01 0.69181E-02 0.24584E-01 0.45583E-01 0.78071E-01 0.11958    
 0.16844     0.22425     0.28703     0.35555     0.42631     0.49401     0.55332     0.60088     0.63607     0.65999    
 0.67345     0.67555     0.66383     0.63591     0.59145     0.53308     0.46565     0.39455     0.32409     0.25691    
 0.19460     0.13865     0.91187E-01 0.54693E-01 0.31292E-01 0.21987E-01 0.26418E-01 0.43215E-01 0.70644E-01 0.10704    
 0.15074     0.19950     0.25010     0.29846     0.34046     0.37307     0.39511     0.40705     0.41000     0.40456    
 0.39016     0.36570     0.33085     0.28723     0.23842     0.18888     0.14242     0.10138     0.66899E-01 0.40049E-01
 0.22618E-01 0.16907E-01 0.94392E-01 0.12853     0.17278     0.22554     0.28628     0.35531     0.43235     0.51511    
 0.59891     0.67786     0.74695     0.80374     0.84829     0.88150     0.90299     0.91012     0.89909     0.86729    
 0.81539     0.74761     0.67015     0.58887     0.50768     0.42842     0.35214     0.28044     0.21607     0.16241    
 0.12226     0.96913E-01 0.86012E-01 0.88101E-01 0.10146     0.12454     0.15582     0.19327     0.23397     0.27426    
 0.31038     0.33937     0.35965     0.37092     0.37357     0.36790     0.35369     0.33063     0.29913     0.26097    
 0.21924     0.17761     0.13938     0.10701     0.82364E-01 0.67196E-01 0.63351E-01 0.72303E-01 0.20056     0.24703    
 0.30330     0.36878     0.44382     0.52862     0.62186     0.71974     0.81652     0.90627     0.98502      1.0516    
  1.1066      1.1504      1.1809      1.1937      1.1838      1.1490      1.0910      1.0157     0.93011     0.84013    
 0.74874     0.65693     0.56547     0.47655     0.39412     0.32273     0.26590     0.22503     0.19944     0.18731    
 0.18673     0.19621     0.21451     0.24003     0.27040     0.30245     0.33264     0.35776     0.37553     0.38479    
 0.38535     0.37758     0.36203     0.33939     0.31074     0.27776     0.24273     0.20839     0.17762     0.15324    
 0.13790     0.13389     0.14286     0.16532     0.33453     0.39327     0.46312     0.54411     0.63651     0.73960    
 0.85051     0.96405      1.0739      1.1748      1.2639      1.3410      1.4070      1.4612      1.4998      1.5171    
  1.5080      1.4707      1.4085      1.3281      1.2367      1.1395      1.0382     0.93308     0.82521     0.71795    
 0.61680     0.52761     0.45447     0.39863     0.35891     0.33303     0.31885     0.31494     0.32032     0.33381    
 0.35354     0.37675     0.40009     0.42012     0.43400     0.43992     0.43735     0.42687     0.40981     0.38771    
 0.36206     0.33416     0.30542     0.27772     0.25364     0.23634     0.22907     0.23446     0.25398     0.28767    
 0.49189     0.56343     0.64853     0.74711     0.85856     0.98084      1.1098      1.2396      1.3641      1.4786    
  1.5808      1.6707      1.7481      1.8111      1.8551      1.8741      1.8636      1.8233      1.7578      1.6740    
  1.5784      1.4748      1.3638      1.2452      1.1209     0.99576     0.87674     0.77071     0.68191     0.61125    
 0.55710     0.51696     0.48878     0.47138     0.46400     0.46568     0.47471     0.48858     0.50412     0.51796    
 0.52707     0.52933     0.52395     0.51160     0.49396     0.47293     0.45000     0.42612     0.40217     0.37967    
 0.36119     0.35008     0.34978     0.36297     0.39105     0.43422     0.67132     0.75619     0.85693     0.97279    
  1.1022      1.2421      1.3883      1.5353      1.6774      1.8100      1.9298      2.0352      2.1244      2.1943    
  2.2403      2.2574      2.2432      2.1990      2.1303      2.0436      1.9444      1.8346      1.7140      1.5827    
  1.4434      1.3025      1.1680      1.0469     0.94324     0.85728     0.78729     0.73116     0.68760     0.65603    
 0.63593     0.62616     0.62481     0.62930     0.63672     0.64404     0.64845     0.64777     0.64101     0.62849    
 0.61151     0.59161     0.56997     0.54751     0.52541     0.50575     0.49152     0.48616     0.49279     0.51368    
 0.55011     0.60261     0.86983     0.96791      1.0829      1.2134      1.3571      1.5114      1.6731      1.8381    
  2.0009      2.1556      2.2966      2.4194      2.5201      2.5951      2.6410      2.6552      2.6372      2.5901    
  2.5191      2.4302      2.3271      2.2109      2.0807      1.9374      1.7850      1.6309      1.4835      1.3494    
  1.2314      1.1293      1.0417     0.96764     0.90727     0.86100     0.82841     0.80785     0.79671     0.79211    
 0.79137     0.79204     0.79184     0.78886     0.78186     0.77040     0.75466     0.73512     0.71254     0.68831    
 0.66487     0.64574     0.63480     0.63550     0.65017     0.68018     0.72634     0.78936      1.0781      1.1885    
  1.3156      1.4572      1.6115      1.7771      1.9527      2.1354      2.3195      2.4969      2.6587      2.7974    
  2.9080      2.9876      3.0350      3.0498      3.0329      2.9874      2.9177      2.8282      2.7215      2.5981    
  2.4577      2.3023      2.1375      1.9715      1.8126      1.6662      1.5340      1.4152      1.3092      1.2167    
  1.1396      1.0794      1.0355      1.0053     0.98510     0.97148     0.96199     0.95493     0.94893     0.94263    
 0.93468     0.92372     0.90849     0.88816     0.86304     0.83530     0.80910     0.78972     0.78213     0.78964    
 0.81359     0.85412     0.91129     0.98571      1.2803      1.4017      1.5392      1.6903      1.8536      2.0294    
  2.2180      2.4170      2.6195      2.8149      2.9918      3.1414      3.2594      3.3451      3.3994      3.4229    
  3.4158      3.3793      3.3159      3.2283      3.1184      2.9869      2.8349      2.6662      2.4879      2.3093    
  2.1384      1.9793      1.8328      1.6977      1.5744      1.4653      1.3739      1.3024      1.2496      1.2114    
  1.1828      1.1599      1.1403      1.1234      1.1090      1.0964      1.0846      1.0716      1.0551      1.0331    
  1.0057     0.97556     0.94815     0.93004     0.92685     0.94158     0.97459      1.0250      1.0922      1.1771    
  1.4586      1.5897      1.7376      1.8993      2.0735      2.2612      2.4628      2.6754      2.8904      3.0955    
  3.2788      3.4330      3.5567      3.6518      3.7202      3.7611      3.7720      3.7506      3.6969      3.6122    
  3.4987      3.3582      3.1935      3.0102      2.8171      2.6243      2.4399      2.2674      2.1067      1.9570    
  1.8192      1.6973      1.5957      1.5165      1.4574      1.4129      1.3768      1.3444      1.3141      1.2859    
  1.2606      1.2387      1.2195      1.2011      1.1811      1.1573      1.1295      1.1004      1.0756      1.0617    
  1.0642      1.0853      1.1247      1.1812      1.2548      1.3468      1.5997      1.7398      1.8993      2.0745    
  2.2633      2.4657      2.6809      2.9039      3.1250      3.3317      3.5144      3.6697      3.7997      3.9083    
  3.9961      4.0590      4.0898      4.0830      4.0365      3.9523      3.8335      3.6835      3.5067      3.3095    
  3.1019      2.8947      2.6963      2.5104      2.3369      2.1750      2.0266      1.8960      1.7879      1.7038    
  1.6403      1.5906      1.5478      1.5072      1.4676      1.4295      1.3942      1.3625      1.3342      1.3083    
  1.2832      1.2576      1.2313      1.2066      1.1880      1.1808      1.1891      1.2141      1.2554      1.3126    
  1.3871      1.4820      1.6993      1.8479      2.0198      2.2105      2.4163      2.6349      2.8630      3.0936    
  3.3164      3.5210      3.7017      3.8594      3.9991      4.1244      4.2323      4.3138      4.3577      4.3565    
  4.3090      4.2193      4.0928      3.9342      3.7479      3.5403      3.3214      3.1024      2.8921      2.6948    
  2.5107      2.3396      2.1837      2.0474      1.9350      1.8469      1.7791      1.7244      1.6761      1.6303    
  1.5858      1.5431      1.5028      1.4649      1.4293      1.3960      1.3652      1.3371      1.3124      1.2929    
  1.2815      1.2812      1.2939      1.3197      1.3586      1.4118      1.4831      1.5778      1.7606      1.9165    
  2.0997      2.3044      2.5253      2.7577      2.9958      3.2313      3.4546      3.6587      3.8419      4.0081    
  4.1625      4.3052      4.4284      4.5182      4.5618      4.5529      4.4940      4.3929      4.2576      4.0927    
  3.9015      3.6890      3.4641      3.2379      3.0196      2.8142      2.6226      2.4452      2.2842      2.1438    
  2.0274      1.9349      1.8620      1.8022      1.7499      1.7024      1.6589      1.6188      1.5809      1.5434    
  1.5051      1.4667      1.4303      1.3983      1.3730      1.3563      1.3497      1.3538      1.3683      1.3923    
  1.4266      1.4744      1.5418      1.6357      1.7882      1.9495      2.1397      2.3527      2.5822      2.8219    
  3.0648      3.3024      3.5273      3.7356      3.9284      4.1101      4.2824      4.4401      4.5700      4.6559    
  4.6861      4.6591      4.5829      4.4692      4.3269      4.1594      3.9678      3.7551      3.5289      3.2999    
  3.0777      2.8678      2.6720      2.4908      2.3267      2.1833      2.0635      1.9665      1.8883      1.8237    
  1.7690      1.7228      1.6846      1.6526      1.6232      1.5920      1.5560      1.5157      1.4743      1.4369    
  1.4077      1.3896      1.3833      1.3880      1.4016      1.4231      1.4538      1.4986      1.5649      1.6599    
  1.7831      1.9465      2.1376      2.3508      2.5799      2.8186      3.0599      3.2968      3.5242      3.7406    
  3.9481      4.1481      4.3373      4.5043      4.6321      4.7051      4.7162      4.6701      4.5796      4.4582    
  4.3137      4.1472      3.9575      3.7462      3.5206      3.2913      3.0682      2.8569      2.6595      2.4771    
  2.3122      2.1679      2.0465      1.9468      1.8653      1.7979      1.7425      1.6988      1.6668      1.6438    
  1.6244      1.6016      1.5707      1.5308      1.4861      1.4429      1.4077      1.3847      1.3749      1.3767    
  1.3880      1.4076      1.4378      1.4838      1.5530      1.6517      1.7408      1.9022      2.0882      2.2943    
  2.5154      2.7462      2.9808      3.2142      3.4434      3.6683      3.8896      4.1046      4.3042      4.4726    
  4.5919      4.6500      4.6458      4.5891      4.4948      4.3746      4.2332      4.0691      3.8802      3.6689    
  3.4433      3.2146      2.9924      2.7820      2.5856      2.4045      2.2413      2.0992      1.9798      1.8816    
  1.8009      1.7344      1.6804      1.6395      1.6117      1.5944      1.5814      1.5649      1.5386      1.5007    
  1.4546      1.4076      1.3670      1.3382      1.3231      1.3205      1.3289      1.3479      1.3799      1.4302    
  1.5047      1.6077      1.6547      1.8104      1.9874      2.1824      2.3919      2.6117      2.8373      3.0653    
  3.2942      3.5238      3.7525      3.9735      4.1736      4.3352      4.4429      4.4898      4.4800      4.4255    
  4.3388      4.2272      4.0911      3.9277      3.7364      3.5225      3.2964      3.0696      2.8507      2.6439    
  2.4509      2.2734      2.1146      1.9777      1.8642      1.7721      1.6976      1.6366      1.5874      1.5499    
  1.5241      1.5080      1.4964      1.4818      1.4582      1.4228      1.3782      1.3306      1.2875      1.2547    
  1.2348      1.2278      1.2332      1.2514      1.2853      1.3394      1.4179      1.5231      1.5221      1.6695    
  1.8361      2.0199      2.2184      2.4281      2.6453      2.8672      3.0928      3.3213      3.5485      3.7650    
  3.9554      4.1039      4.1993      4.2403      4.2338      4.1903      4.1171      4.0155      3.8824      3.7158    
  3.5193      3.3025      3.0780      2.8567      2.6449      2.4450      2.2581      2.0865      1.9341      1.8049    
  1.7001      1.6179      1.5538      1.5030      1.4625      1.4307      1.4072      1.3904      1.3769      1.3615    
  1.3391      1.3069      1.2662      1.2217      1.1795      1.1452      1.1220      1.1110      1.1126      1.1283    
  1.1612      1.2153      1.2933      1.3960      1.3484      1.4858      1.6425      1.8171      2.0073      2.2094    
  2.4197      2.6354      2.8551      3.0769      3.2951      3.4985      3.6725      3.8043      3.8880      3.9260    
  3.9258      3.8939      3.8316      3.7349      3.5997      3.4272      3.2259      3.0096      2.7919      2.5814    
  2.3814      2.1920      2.0140      1.8505      1.7066      1.5867      1.4924      1.4218      1.3706      1.3332    
  1.3050      1.2827      1.2644      1.2489      1.2346      1.2186      1.1979      1.1699      1.1348      1.0951    
  1.0558      1.0217     0.99612     0.98093     0.97745     0.98788      1.0156      1.0643      1.1361      1.2313    
  1.1463      1.2731      1.4205      1.5873      1.7706      1.9663      2.1699      2.3784      2.5899      2.8013    
  3.0059      3.1922      3.3474      3.4621      3.5345      3.5691      3.5721      3.5456      3.4861      3.3872    
  3.2461      3.0682      2.8667      2.6575      2.4528      2.2579      2.0730      1.8967      1.7301      1.5775    
  1.4447      1.3363      1.2539      1.1958      1.1580      1.1350      1.1212      1.1115      1.1026      1.0928    
  1.0815      1.0680      1.0506      1.0276     0.99799     0.96318     0.92657     0.89237     0.86408     0.84402    
 0.83414     0.83707     0.85637     0.89556     0.95682      1.0406     0.93247      1.0480      1.1856      1.3435    
  1.5184      1.7053      1.8998      2.0985      2.2992      2.4980      2.6874      2.8563      2.9938      3.0932    
  3.1549      3.1839      3.1845      3.1557      3.0916      2.9864      2.8401      2.6621      2.4677      2.2721    
  2.0845      1.9070      1.7376      1.5752      1.4221      1.2838      1.1660      1.0725      1.0042     0.95928    
 0.93458     0.92536     0.92585     0.93007     0.93327     0.93297     0.92868     0.92059     0.90815     0.88987    
 0.86456     0.83272     0.79701     0.76132     0.72930     0.70371     0.68690     0.68163     0.69134     0.71943    
 0.76835     0.83926     0.72233     0.82560     0.95116      1.0969      1.2589      1.4324      1.6131      1.7981    
  1.9849      2.1693      2.3433      2.4963      2.6185      2.7051      2.7572      2.7791      2.7734      2.7380    
  2.6672      2.5573      2.4116      2.2411      2.0606      1.8824      1.7124      1.5505      1.3948      1.2459    
  1.1082     0.98776     0.88938     0.81490     0.76354     0.73331     0.72167     0.72506     0.73841     0.75559    
 0.77110     0.78158     0.78607     0.78478     0.77749     0.76296     0.73998     0.70881     0.67189     0.63311    
 0.59643     0.56503     0.54151     0.52855     0.52922     0.54670     0.58364     0.64183     0.52693     0.61653    
 0.72737     0.85697      1.0014      1.1564      1.3187      1.4860      1.6562      1.8244      1.9827      2.1208    
  2.2300      2.3060      2.3499      2.3649      2.3526      2.3111      2.2365      2.1279      1.9901      1.8338    
  1.6711      1.5106      1.3558      1.2064      1.0626     0.92755     0.80735     0.70793     0.63226     0.57974    
 0.54781     0.53392     0.53601     0.55156     0.57639     0.60482     0.63118     0.65156     0.66438     0.66943    
 0.66641     0.65424     0.63189     0.59970     0.56013     0.51720     0.47519     0.43772     0.40763     0.38744    
 0.37983     0.38761     0.41343     0.45940     0.35344     0.42798     0.52198     0.63273     0.75665     0.89044    
  1.0319      1.1796      1.3313      1.4821      1.6240      1.7473      1.8442      1.9108      1.9476      1.9570    
  1.9402      1.8960      1.8226      1.7211      1.5964      1.4573      1.3125      1.1678      1.0258     0.88779    
 0.75649     0.63744     0.53724     0.46065     0.40856     0.37848     0.36670     0.37029     0.38736     0.41584    
 0.45209     0.49089     0.52676     0.55561     0.57544     0.58564     0.58575     0.57486     0.55218     0.51820    
 0.47535     0.42764     0.37960     0.33525     0.29776     0.26967     0.25339     0.25135     0.26602     0.29956    
 0.20753     0.26600     0.34231     0.43369     0.53705     0.65001     0.77123     0.89964      1.0328      1.1657    
  1.2905      1.3985      1.4829      1.5402      1.5707      1.5758      1.5566      1.5127      1.4440      1.3521    
  1.2414      1.1185     0.98936     0.85864     0.72942     0.60496     0.49005     0.39084     0.31294     0.25928    
 0.22927     0.21979     0.22716     0.24855     0.28194     0.32495     0.37380     0.42335     0.46836     0.50483    
 0.53065     0.54500     0.54740     0.53715     0.51373     0.47765     0.43113     0.37799     0.32283     0.27010    
 0.22345     0.18568     0.15911     0.14590     0.14828     0.16834     0.95547E-01 0.13746     0.19626     0.26936    
 0.35408     0.44861     0.55195     0.66294     0.77879     0.89423      1.0020      1.0944      1.1660      1.2139    
  1.2382      1.2398      1.2194      1.1772      1.1137      1.0307     0.93191     0.82223     0.70666     0.58974    
 0.47576     0.36938     0.27581     0.20008     0.14575     0.11401     0.10378     0.11261     0.13780     0.17694    
 0.22755     0.28636     0.34885     0.40967     0.46376     0.50738     0.53846     0.55617     0.56013     0.54991    
 0.52519     0.48641     0.43545     0.37583     0.31221     0.24948     0.19189     0.14263     0.10401     0.77999E-01
 0.66641E-01 0.71995E-01 0.24469E-01 0.49727E-01 0.91629E-01 0.14787     0.21609     0.29464     0.38242     0.47786    
 0.57774     0.67675     0.76823     0.84584     0.90514     0.94413     0.96266     0.96127     0.94031     0.90002    
 0.84111     0.76546     0.67631     0.57804     0.47558     0.37407     0.27863     0.19416     0.12492     0.73983E-01
 0.42956E-01 0.32032E-01 0.40450E-01 0.66921E-01 0.10977     0.16672     0.23455     0.30889     0.38447     0.45580    
 0.51806     0.56779     0.60303     0.62300     0.62745     0.61617     0.58898     0.54617     0.48935     0.42187    
 0.34858     0.27488     0.20553     0.14402     0.92607E-01 0.53022E-01 0.27148E-01 0.17075E-01 0.32093E-04 0.87980E-02
 0.34296E-01 0.74569E-01 0.12745     0.19124     0.26453     0.34534     0.43019     0.51398     0.59079     0.65532    
 0.70406     0.73545     0.74929     0.74580     0.72508     0.68730     0.63323     0.56477     0.48517     0.39886    
 0.31107     0.22722     0.15239     0.90762E-01 0.45267E-01 0.17573E-01 0.83768E-02 0.17811E-01 0.45647E-01 0.91148E-01
 0.15267     0.22736     0.31110     0.39886     0.48516     0.56477     0.63324     0.68731     0.72508     0.74580    
 0.74929     0.73545     0.70406     0.65532     0.59079     0.51398     0.43019     0.34534     0.26453     0.19124    
 0.12745     0.74568E-01 0.34295E-01 0.87975E-02 0.24469E-01 0.17160E-01 0.26684E-01 0.51396E-01 0.89253E-01 0.13845    
 0.19735     0.26375     0.33427     0.40425     0.46852     0.52249     0.56310     0.58895     0.59973     0.59552    
 0.57639     0.54251     0.49471     0.43498     0.36673     0.29457     0.22370     0.15912     0.10499     0.64447E-01
 0.39668E-01 0.32190E-01 0.43122E-01 0.73089E-01 0.12189     0.18806     0.26875     0.35996     0.45706     0.55517    
 0.64943     0.73511     0.80799     0.86482     0.90366     0.92377     0.92501     0.90719     0.86995     0.81344    
 0.73942     0.65199     0.55711     0.46119     0.36943     0.28502     0.20946     0.14377     0.89525E-01 0.48997E-01
 0.95547E-01 0.72970E-01 0.67317E-01 0.77153E-01 0.10051     0.13551     0.18037     0.23295     0.29024     0.34822    
 0.40234     0.44841     0.48339     0.50574     0.51506     0.51154     0.49540     0.46694     0.42702     0.37772    
 0.32261     0.26633     0.21366     0.16860     0.13405     0.11225     0.10542     0.11595     0.14601     0.19657    
 0.26655     0.35276     0.45062     0.55537     0.66275     0.76894     0.86995     0.96125      1.0383      1.0975    
  1.1367      1.1555      1.1538      1.1313      1.0873      1.0219     0.93726     0.83822     0.73161     0.62426    
 0.52124     0.42530     0.33750     0.25866     0.19039     0.13518     0.20753     0.17099     0.15166     0.14818    
 0.15862     0.18099     0.21343     0.25392     0.29993     0.34807     0.39432     0.43465     0.46585     0.48617    
 0.49523     0.49344     0.48128     0.45915     0.42788     0.38953     0.34774     0.30713     0.27199     0.24539    
 0.22922     0.22517     0.23572     0.26415     0.31321     0.38344     0.47222     0.57457     0.68502     0.79931    
 0.91469      1.0287      1.1376      1.2361      1.3184      1.3801      1.4195      1.4366      1.4318      1.4047    
  1.3540      1.2796      1.1839      1.0728     0.95382     0.83405     0.71839     0.60919     0.50739     0.41402    
 0.33108     0.26138     0.35344     0.30459     0.27353     0.25894     0.25885     0.27116     0.29382     0.32484    
 0.36199     0.40241     0.44254     0.47848     0.50697     0.52615     0.53577     0.53654     0.52916     0.51394    
 0.49146     0.46358     0.43389     0.40702     0.38720     0.37720     0.37849     0.39251     0.42174     0.46935    
 0.53744     0.62517     0.72836     0.84127     0.95924      1.0801      1.2031      1.3265      1.4456      1.5529    
  1.6406      1.7041      1.7423      1.7566      1.7484      1.7169      1.6600      1.5771      1.4709      1.3479    
  1.2162      1.0831     0.95333     0.82901     0.71135     0.60213     0.50407     0.42033     0.52693     0.46735    
 0.42622     0.40229     0.39370     0.39825     0.41361     0.43756     0.46793     0.50224     0.53736     0.56975    
 0.59626     0.61514     0.62633     0.63077     0.62925     0.62188     0.60875     0.59119     0.57253     0.55744    
 0.55050     0.55491     0.57251     0.60479     0.65370     0.72118     0.80745     0.90975      1.0230      1.1421    
  1.2649      1.3920      1.5241      1.6588      1.7888      1.9037      1.9943      2.0561      2.0901      2.0998    
  2.0871      2.0508      1.9878      1.8967      1.7804      1.6460      1.5021      1.3560      1.2121      1.0724    
 0.93888     0.81418     0.70188     0.60538     0.72233     0.65305     0.60245     0.56966     0.55318     0.55086    
 0.56008     0.57822     0.60301     0.63222     0.66328     0.69312     0.71887     0.73887     0.75312     0.76269    
 0.76839     0.77015     0.76757     0.76129     0.75399     0.75015     0.75467     0.77159     0.80367     0.85277    
 0.92020      1.0061      1.1083      1.2223      1.3430      1.4673      1.5958      1.7311      1.8740      2.0199    
  2.1581      2.2759      2.3638      2.4192      2.4458      2.4489      2.4306      2.3884      2.3181      2.2178    
  2.0911      1.9459      1.7911      1.6338      1.4779      1.3254      1.1787      1.0415     0.91767     0.81069    
 0.93247     0.85387     0.79348     0.75118     0.72617     0.71654     0.71945     0.73193     0.75162     0.77666    
 0.80505     0.83419     0.86131     0.88456     0.90361     0.91936     0.93277     0.94400     0.95263     0.95878    
 0.96424     0.97264     0.98868      1.0170      1.0613      1.1243      1.2068      1.3074      1.4221      1.5456    
  1.6736      1.8049      1.9420      2.0878      2.2413      2.3949      2.5352      2.6491      2.7290      2.7753    
  2.7941      2.7910      2.7668      2.7173      2.6373      2.5255      2.3869      2.2309      2.0667      1.9009    
  1.7367      1.5758      1.4208      1.2756      1.1441      1.0293      1.1463      1.0585     0.98817     0.93603    
 0.90208     0.88471     0.88096     0.88774     0.90284     0.92493     0.95262     0.98361      1.0148      1.0436    
  1.0685      1.0901      1.1096      1.1283      1.1465      1.1646      1.1836      1.2055      1.2340      1.2735    
  1.3284      1.4020      1.4953      1.6062      1.7301      1.8616      1.9974      2.1379      2.2855      2.4417    
  2.6025      2.7576      2.8933      2.9984      3.0689      3.1085      3.1237      3.1181      3.0895      3.0315    
  2.9391      2.8130      2.6608      2.4936      2.3213      2.1496      1.9807      1.8156      1.6567      1.5075    
  1.3714      1.2507      1.3484      1.2523      1.1733      1.1129      1.0716      1.0477      1.0381      1.0398    
  1.0512      1.0716      1.1004      1.1354      1.1729      1.2085      1.2393      1.2648      1.2868      1.3085    
  1.3322      1.3594      1.3904      1.4259      1.4673      1.5182      1.5829      1.6650      1.7660      1.8838    
  2.0140      2.1521      2.2958      2.4456      2.6028      2.7660      2.9284      3.0786      3.2052      3.3012    
  3.3668      3.4070      3.4262      3.4235      3.3925      3.3254      3.2186      3.0767      2.9106      2.7332    
  2.5543      2.3786      2.2069      2.0396      1.8785      1.7264      1.5863      1.4600      1.5221      1.4196    
  1.3354      1.2711      1.2265      1.1993      1.1861      1.1841      1.1925      1.2117      1.2420      1.2814    
  1.3252      1.3673      1.4028      1.4300      1.4513      1.4717      1.4963      1.5283      1.5681      1.6149    
  1.6683      1.7302      1.8042      1.8938      2.0008      2.1234      2.2581      2.4012      2.5512      2.7082    
  2.8713      3.0365      3.1950      3.3368      3.4542      3.5454      3.6134      3.6622      3.6916      3.6949    
  3.6620      3.5850      3.4640      3.3080      3.1313      2.9473      2.7647      2.5863      2.4120      2.2416    
  2.0766      1.9197      1.7738      1.6408      1.6547      1.5487      1.4640      1.4011      1.3583      1.3319    
  1.3178      1.3134      1.3188      1.3359      1.3659      1.4074      1.4553      1.5020      1.5408      1.5689    
  1.5888      1.6069      1.6305      1.6644      1.7093      1.7638      1.8262      1.8969      1.9786      2.0748    
  2.1868      2.3132      2.4509      2.5972      2.7510      2.9118      3.0770      3.2402      3.3928      3.5268    
  3.6387      3.7306      3.8063      3.8667      3.9060      3.9125      3.8745      3.7868      3.6544      3.4903    
  3.3102      3.1264      2.9445      2.7652      2.5876      2.4118      2.2397      2.0748      1.9204      1.7795    
  1.7408      1.6346      1.5534      1.4961      1.4587      1.4357      1.4221      1.4157      1.4174      1.4305    
  1.4573      1.4971      1.5451      1.5934      1.6345      1.6648      1.6864      1.7057      1.7306      1.7663    
  1.8143      1.8726      1.9394      2.0148      2.1014      2.2019      2.3174      2.4463      2.5856      2.7333    
  2.8886      3.0506      3.2157      3.3766      3.5250      3.6550      3.7661      3.8618      3.9447      4.0118    
  4.0528      4.0540      4.0055      3.9070      3.7683      3.6050      3.4312      3.2552      3.0790      2.9009    
  2.7199      2.5372      2.3564      2.1819      2.0183      1.8699      1.7831      1.6791      1.6029      1.5518    
  1.5199      1.4999      1.4864      1.4775      1.4752      1.4833      1.5048      1.5395      1.5837      1.6305    
  1.6732      1.7079      1.7358      1.7620      1.7930      1.8333      1.8837      1.9428      2.0095      2.0848    
  2.1720      2.2737      2.3905      2.5201      2.6595      2.8069      2.9621      3.1242      3.2893      3.4499    
  3.5979      3.7285      3.8416      3.9400      4.0240      4.0873      4.1181      4.1045      4.0414      3.9342    
  3.7963      3.6425      3.4829      3.3204      3.1527      2.9772      2.7938      2.6057      2.4181      2.2366    
  2.0666      1.9137      1.7882      1.6872      1.6147      1.5668      1.5365      1.5163      1.5011      1.4898    
  1.4847      1.4892      1.5060      1.5348      1.5732      1.6162      1.6590      1.6986      1.7354      1.7722    
  1.8130      1.8598      1.9125      1.9703      2.0335      2.1051      2.1894      2.2896      2.4055      2.5341    
  2.6720      2.8176      2.9714      3.1329      3.2985      3.4607      3.6112      3.7446      3.8596      3.9568    
  4.0341      4.0842      4.0968      4.0644      3.9881      3.8777      3.7473      3.6086      3.4660      3.3171    
  3.1572      2.9841      2.7999      2.6102      2.4215      2.2395      2.0695      1.9171      1.7606      1.6622    
  1.5903      1.5409      1.5072      1.4829      1.4646      1.4520      1.4472      1.4522      1.4676      1.4927    
  1.5254      1.5631      1.6036      1.6455      1.6889      1.7348      1.7841      1.8363      1.8902      1.9451    
  2.0033      2.0697      2.1501      2.2476      2.3614      2.4877      2.6226      2.7649      2.9156      3.0750    