Screening bandgap                       
   1.00000000000000     
     6.350000    0.000000    0.000000
     0.000000    6.350000    0.000000
     0.000000    0.000000    6.350000
   C    H 
     1     4
Direct
  0.500000  0.500000  0.500000
  0.400987  0.400987  0.400987
  0.599013  0.599013  0.400987
  0.400987  0.599013  0.599013
  0.599013  0.400987  0.599013
 
   56   56   56
 0.89886E-04 0.10331E-03 0.93651E-04 0.57952E-04 0.17209E-04 -.20614E-05 0.36785E-05 0.15926E-04 0.19703E-04 0.14416E-04
 0.53842E-06 -.26665E-04 -.62102E-04 -.82853E-04 -.68922E-04 -.28288E-04 0.83832E-05 0.16862E-04 -.21692E-05 -.29199E-04
 -.42004E-04 -.28586E-04 0.54605E-05 0.40423E-04 0.59903E-04 0.65801E-04 0.70402E-04 0.75606E-04 0.71012E-04 0.54910E-04
 0.44102E-04 0.52814E-04 0.69214E-04 0.65113E-04 0.28240E-04 -.23206E-04 -.57515E-04 -.54586E-04 -.17141E-04 0.32516E-04
 0.65341E-04 0.64799E-04 0.38904E-04 0.95507E-05 -.10337E-04 -.22237E-04 -.25786E-04 -.11561E-04 0.21386E-04 0.52208E-04
 0.57224E-04 0.38699E-04 0.21902E-04 0.24889E-04 0.43799E-04 0.67413E-04 0.25994E-03 0.18559E-03 0.76501E-04 0.16139E-04
 0.11137E-04 0.13724E-04 0.72044E-06 -.70924E-05 0.49401E-05 0.16995E-04 0.80409E-05 -.11599E-04 -.18899E-04 -.97154E-05
 0.65104E-05 0.27264E-04 0.50537E-04 0.59577E-04 0.39157E-04 0.31369E-05 -.17491E-04 -.13492E-04 -.14210E-05 0.11716E-04
 0.38938E-04 0.77966E-04 0.94773E-04 0.66392E-04 0.20821E-04 0.50321E-05 0.23283E-04 0.38349E-04 0.31233E-04 0.24518E-04
 0.36321E-04 0.44518E-04 0.22202E-04 -.12405E-04 -.14613E-04 0.22935E-04 0.55807E-04 0.44981E-04 0.53011E-05 -.18744E-04
 -.11348E-04 0.12656E-05 -.56159E-05 -.17832E-04 -.21656E-05 0.42194E-04 0.71012E-04 0.47965E-04 0.28713E-05 0.12297E-04
 0.10855E-03 0.22538E-03 0.50329E-03 0.38871E-03 0.13821E-03 -.18160E-04 -.99733E-05 0.37158E-04 0.16289E-04 -.30647E-04
 -.23731E-04 0.22538E-04 0.46559E-04 0.47884E-04 0.67223E-04 0.98819E-04 0.10189E-03 0.79345E-04 0.71521E-04 0.79544E-04
 0.65212E-04 0.27848E-04 0.10827E-04 0.21390E-04 0.16326E-04 -.10260E-04 -.10483E-05 0.60588E-04 0.94098E-04 0.35970E-04
 -.47965E-04 -.51141E-04 0.98945E-05 0.23280E-04 -.33754E-04 -.50436E-04 0.43207E-04 0.15648E-03 0.16263E-03 0.76608E-04
 0.22353E-04 0.55535E-04 0.10708E-03 0.10253E-03 0.59921E-04 0.42378E-04 0.64735E-04 0.83773E-04 0.59949E-04 0.58022E-05
 -.21825E-04 0.20043E-04 0.97951E-04 0.11998E-03 0.55477E-04 0.14374E-04 0.13263E-03 0.36906E-03 0.41780E-03 0.36012E-03
 0.13220E-03 -.23069E-04 0.85348E-06 0.68286E-04 0.41223E-04 -.30218E-04 -.31157E-04 0.30920E-04 0.73916E-04 0.91943E-04
 0.13377E-03 0.17751E-03 0.15280E-03 0.72914E-04 0.27662E-04 0.40120E-04 0.41522E-04 0.69674E-05 0.27456E-05 0.56502E-04
 0.88508E-04 0.40411E-04 -.19811E-04 -.65122E-05 0.47978E-04 0.67072E-04 0.73473E-04 0.13340E-03 0.19737E-03 0.14682E-03
 0.67320E-05 -.39325E-04 0.97270E-04 0.26926E-03 0.29215E-03 0.18226E-03 0.89303E-04 0.69129E-04 0.57716E-04 0.36823E-04
 0.80949E-04 0.21518E-03 0.33791E-03 0.33658E-03 0.21419E-03 0.65790E-04 -.14102E-04 0.20132E-04 0.13870E-03 0.22851E-03
 0.18883E-03 0.77751E-04 0.78646E-04 0.25387E-03 0.84689E-04 0.11318E-03 0.58004E-04 0.26737E-04 0.77311E-04 0.11883E-03
 0.69879E-04 -.70715E-05 -.18514E-04 0.12436E-04 0.19304E-04 0.34214E-04 0.12539E-03 0.23808E-03 0.24050E-03 0.12299E-03
 0.17406E-04 0.11477E-05 0.13692E-04 0.85600E-05 0.52294E-04 0.18619E-03 0.29989E-03 0.26347E-03 0.12471E-03 0.59821E-04
 0.16115E-03 0.37339E-03 0.60195E-03 0.76458E-03 0.76024E-03 0.53905E-03 0.23733E-03 0.10761E-03 0.24205E-03 0.46140E-03
 0.54394E-03 0.46496E-03 0.32905E-03 0.18111E-03 0.29174E-04 -.18476E-04 0.17035E-03 0.52096E-03 0.75353E-03 0.67891E-03
 0.39195E-03 0.12295E-03 0.13170E-05 0.25040E-04 0.14771E-03 0.28571E-03 0.31605E-03 0.19428E-03 0.42827E-04 0.13106E-04
 -.76364E-04 -.25477E-04 0.46789E-04 0.12632E-03 0.19424E-03 0.19004E-03 0.10152E-03 0.13214E-04 -.96865E-05 -.15247E-04
 -.56235E-04 -.57257E-04 0.86440E-04 0.30979E-03 0.41455E-03 0.31850E-03 0.14876E-03 0.56796E-04 0.60761E-04 0.12703E-03
 0.28220E-03 0.52947E-03 0.73380E-03 0.73510E-03 0.56968E-03 0.47084E-03 0.63027E-03 0.10234E-02 0.14575E-02 0.17074E-02
 0.16184E-02 0.12073E-02 0.71779E-03 0.47843E-03 0.61570E-03 0.94181E-03 0.11639E-02 0.11450E-02 0.92530E-03 0.60446E-03
 0.31899E-03 0.25684E-03 0.51104E-03 0.89860E-03 0.10696E-02 0.86114E-03 0.45299E-03 0.13068E-03 0.10307E-05 0.62063E-05
 0.94658E-04 0.23895E-03 0.34437E-03 0.29733E-03 0.11893E-03 -.39591E-04 0.58803E-04 0.69461E-04 0.12244E-03 0.20519E-03
 0.27614E-03 0.25928E-03 0.14250E-03 0.24012E-04 -.71256E-05 0.12665E-04 0.38891E-05 -.66579E-07 0.11092E-03 0.33297E-03
 0.50373E-03 0.48950E-03 0.33887E-03 0.20700E-03 0.20004E-03 0.34685E-03 0.64279E-03 0.10199E-02 0.13113E-02 0.13644E-02
 0.12212E-02 0.11184E-02 0.12725E-02 0.16890E-02 0.21714E-02 0.24631E-02 0.23914E-02 0.19787E-02 0.14767E-02 0.12279E-02
 0.13947E-02 0.18130E-02 0.21385E-02 0.21317E-02 0.17968E-02 0.13182E-02 0.93178E-03 0.80790E-03 0.93684E-03 0.11022E-02
 0.10512E-02 0.73737E-03 0.35157E-03 0.96063E-04 -.52243E-06 -.14205E-04 0.29258E-04 0.14464E-03 0.27588E-03 0.31322E-03
 0.22957E-03 0.11492E-03 0.18551E-03 0.17090E-03 0.15467E-03 0.18578E-03 0.26197E-03 0.28890E-03 0.19560E-03 0.53755E-04
 0.59022E-05 0.84349E-04 0.17743E-03 0.18977E-03 0.16382E-03 0.20026E-03 0.30932E-03 0.40057E-03 0.40359E-03 0.35363E-03
 0.36377E-03 0.54165E-03 0.91306E-03 0.13775E-02 0.17412E-02 0.18523E-02 0.17396E-02 0.16024E-02 0.16430E-02 0.19105E-02
 0.22880E-02 0.25920E-02 0.26825E-02 0.25450E-02 0.23229E-02 0.22421E-02 0.24303E-02 0.27818E-02 0.30254E-02 0.29452E-02
 0.25410E-02 0.19943E-02 0.15149E-02 0.12087E-02 0.10407E-02 0.89198E-03 0.67211E-03 0.40124E-03 0.17709E-03 0.62258E-04
 0.30958E-04 0.32330E-04 0.60502E-04 0.12695E-03 0.20011E-03 0.22832E-03 0.21062E-03 0.19108E-03 0.77190E-04 0.87603E-04
 0.71130E-04 0.83643E-04 0.16478E-03 0.25259E-03 0.23910E-03 0.12211E-03 0.38109E-04 0.96617E-04 0.22433E-03 0.24475E-03
 0.10602E-03 -.42028E-04 -.24605E-04 0.15713E-03 0.34760E-03 0.43295E-03 0.46667E-03 0.59960E-03 0.91775E-03 0.13539E-02
 0.17332E-02 0.19012E-02 0.18354E-02 0.16609E-02 0.15545E-02 0.16208E-02 0.18449E-02 0.21391E-02 0.24170E-02 0.26343E-02
 0.27964E-02 0.29440E-02 0.31068E-02 0.32503E-02 0.32797E-02 0.31193E-02 0.27792E-02 0.23316E-02 0.18377E-02 0.13272E-02
 0.84014E-03 0.44487E-03 0.19202E-03 0.72571E-04 0.40348E-04 0.61444E-04 0.12264E-03 0.20297E-03 0.26244E-03 0.26493E-03
 0.20574E-03 0.11844E-03 0.55825E-04 0.49427E-04 -.95508E-04 -.63263E-04 -.31049E-04 -.14417E-05 0.59323E-04 0.15963E-03
 0.23053E-03 0.19744E-03 0.96773E-04 0.44879E-04 0.73569E-04 0.78476E-04 -.17547E-04 -.11896E-03 -.61336E-04 0.16766E-03
 0.40079E-03 0.49305E-03 0.47958E-03 0.50943E-03 0.68051E-03 0.97151E-03 0.12844E-02 0.15045E-02 0.15534E-02 0.14440E-02
 0.12908E-02 0.12305E-02 0.13268E-02 0.15602E-02 0.18827E-02 0.22447E-02 0.25774E-02 0.28043E-02 0.28887E-02 0.28532E-02
 0.27479E-02 0.26192E-02 0.24941E-02 0.23469E-02 0.20808E-02 0.16072E-02 0.98003E-03 0.40615E-03 0.72586E-04 -.11047E-04
 0.38889E-04 0.14504E-03 0.30731E-03 0.49342E-03 0.59089E-03 0.51435E-03 0.30783E-03 0.94372E-04 -.43431E-04 -.98563E-04
 -.56500E-04 -.63185E-04 -.31401E-04 -.43914E-05 0.81901E-05 0.55699E-04 0.15215E-03 0.22212E-03 0.19559E-03 0.10747E-03
 0.45481E-04 0.42426E-04 0.85845E-04 0.19424E-03 0.39043E-03 0.60408E-03 0.69516E-03 0.60852E-03 0.44390E-03 0.34262E-03
 0.36148E-03 0.48830E-03 0.70910E-03 0.98891E-03 0.12275E-02 0.13208E-02 0.12735E-02 0.11982E-02 0.12025E-02 0.13164E-02
 0.15171E-02 0.17602E-02 0.19709E-02 0.20653E-02 0.20208E-02 0.19035E-02 0.18131E-02 0.18281E-02 0.19914E-02 0.22716E-02
 0.25015E-02 0.24366E-02 0.19719E-02 0.12844E-02 0.69184E-03 0.37912E-03 0.31848E-03 0.41541E-03 0.61089E-03 0.81763E-03
 0.88452E-03 0.72587E-03 0.43550E-03 0.18841E-03 0.56115E-04 -.11383E-04 0.21076E-03 0.13138E-03 0.75319E-04 0.43351E-04
 0.90382E-05 -.60226E-05 0.49948E-04 0.17704E-03 0.31111E-03 0.39452E-03 0.42708E-03 0.45432E-03 0.53692E-03 0.71427E-03
 0.94679E-03 0.10978E-02 0.10331E-02 0.76219E-03 0.44079E-03 0.21999E-03 0.13945E-03 0.18670E-03 0.38627E-03 0.75468E-03
 0.11990E-02 0.15469E-02 0.16973E-02 0.16969E-02 0.16624E-02 0.16705E-02 0.17287E-02 0.17961E-02 0.18012E-02 0.16846E-02
 0.14644E-02 0.12460E-02 0.11525E-02 0.12682E-02 0.16460E-02 0.22816E-02 0.30096E-02 0.34866E-02 0.34076E-02 0.27850E-02
 0.19583E-02 0.13051E-02 0.97796E-03 0.91102E-03 0.96943E-03 0.10246E-02 0.96339E-03 0.74887E-03 0.47856E-03 0.30194E-03
 0.25985E-03 0.25880E-03 0.52992E-03 0.42538E-03 0.23533E-03 0.83829E-04 0.18168E-04 -.31433E-05 0.18885E-05 0.10090E-03
 0.35625E-03 0.69971E-03 0.95729E-03 0.10208E-02 0.96323E-03 0.95060E-03 0.10477E-02 0.11467E-02 0.10943E-02 0.85906E-03
 0.55109E-03 0.30598E-03 0.19681E-03 0.25649E-03 0.52246E-03 0.10026E-02 0.16060E-02 0.21590E-02 0.25192E-02 0.26709E-02
 0.27075E-02 0.27345E-02 0.27880E-02 0.28199E-02 0.27400E-02 0.24885E-02 0.20973E-02 0.16918E-02 0.14298E-02 0.14360E-02
 0.17770E-02 0.24406E-02 0.32805E-02 0.39955E-02 0.42557E-02 0.39316E-02 0.32043E-02 0.24206E-02 0.18286E-02 0.14559E-02
 0.12019E-02 0.98033E-03 0.76187E-03 0.54954E-03 0.37541E-03 0.30154E-03 0.36065E-03 0.48324E-03 0.77176E-03 0.72331E-03
 0.41263E-03 0.10793E-03 0.11247E-04 0.42010E-04 0.35834E-04 0.44103E-04 0.26549E-03 0.70427E-03 0.10751E-02 0.11166E-02
 0.88743E-03 0.66446E-03 0.62277E-03 0.71336E-03 0.80704E-03 0.84003E-03 0.81126E-03 0.74195E-03 0.69541E-03 0.78652E-03
 0.11113E-02 0.16666E-02 0.23495E-02 0.30193E-02 0.35597E-02 0.39266E-02 0.41690E-02 0.43825E-02 0.46066E-02 0.47698E-02
 0.47545E-02 0.45043E-02 0.40606E-02 0.35250E-02 0.30234E-02 0.26867E-02 0.26110E-02 0.28068E-02 0.31897E-02 0.36153E-02
 0.39165E-02 0.39451E-02 0.36420E-02 0.30816E-02 0.24150E-02 0.17596E-02 0.11699E-02 0.69487E-03 0.38888E-03 0.24226E-03
 0.17794E-03 0.16893E-03 0.28700E-03 0.54855E-03 0.86947E-03 0.90700E-03 0.54030E-03 0.12754E-03 0.32552E-05 0.85783E-04
 0.95891E-04 0.21118E-04 0.10666E-03 0.41663E-03 0.67447E-03 0.62812E-03 0.37257E-03 0.17739E-03 0.14798E-03 0.22395E-03
 0.40143E-03 0.74068E-03 0.11700E-02 0.14832E-02 0.15961E-02 0.16770E-02 0.19523E-02 0.24730E-02 0.31330E-02 0.38219E-02
 0.44774E-02 0.50581E-02 0.55640E-02 0.60526E-02 0.65470E-02 0.69475E-02 0.71112E-02 0.70051E-02 0.67068E-02 0.62667E-02
 0.56615E-02 0.49023E-02 0.41052E-02 0.34196E-02 0.29415E-02 0.27163E-02 0.27452E-02 0.29278E-02 0.30517E-02 0.29117E-02
 0.24448E-02 0.17425E-02 0.98445E-03 0.37664E-03 0.59814E-04 -.25064E-05 0.12568E-04 0.18357E-04 0.14205E-03 0.49259E-03
 0.75045E-03 0.83165E-03 0.50746E-03 0.12255E-03 0.12865E-04 0.99602E-04 0.10649E-03 0.14616E-04 0.35206E-04 0.19795E-03
 0.26887E-03 0.12930E-03 -.32529E-04 -.35214E-04 0.25222E-04 0.20808E-04 0.12946E-03 0.64301E-03 0.14870E-02 0.22078E-02
 0.24961E-02 0.25169E-02 0.26389E-02 0.30163E-02 0.35627E-02 0.41846E-02 0.48627E-02 0.55681E-02 0.62630E-02 0.69717E-02
 0.77160E-02 0.83884E-02 0.88143E-02 0.89547E-02 0.89191E-02 0.87359E-02 0.82296E-02 0.72157E-02 0.57598E-02 0.41768E-02
 0.28215E-02 0.19273E-02 0.15703E-02 0.16660E-02 0.19799E-02 0.22118E-02 0.21291E-02 0.16677E-02 0.96615E-03 0.31343E-03
 -.37008E-04 -.80355E-04 -.35381E-04 -.39719E-04 0.39343E-04 0.35942E-03 0.44295E-03 0.50676E-03 0.29998E-03 0.70080E-04
 0.30001E-04 0.84972E-04 0.57869E-04 0.10070E-04 0.11081E-03 0.29015E-03 0.29952E-03 0.11407E-03 -.46844E-05 0.72882E-04
 0.13728E-03 0.35749E-04 0.53442E-04 0.60292E-03 0.16076E-02 0.24902E-02 0.28206E-02 0.27481E-02 0.27141E-02 0.29483E-02
 0.33933E-02 0.39549E-02 0.46120E-02 0.53329E-02 0.60727E-02 0.68616E-02 0.77474E-02 0.86311E-02 0.92922E-02 0.96262E-02
 0.97350E-02 0.97015E-02 0.93629E-02 0.84307E-02 0.68301E-02 0.48558E-02 0.29987E-02 0.16577E-02 0.98378E-03 0.90217E-03
 0.12108E-02 0.16516E-02 0.19411E-02 0.18440E-02 0.13281E-02 0.64922E-03 0.16807E-03 0.18230E-04 0.24162E-04 -.16105E-05
 0.22418E-05 0.18193E-03 0.15739E-03 0.17757E-03 0.78331E-04 0.19036E-05 0.31922E-04 0.61008E-04 0.79137E-05 0.10461E-04
 0.22158E-03 0.51095E-03 0.59017E-03 0.41218E-03 0.22186E-03 0.17498E-03 0.14644E-03 0.44960E-04 0.10527E-03 0.62208E-03
 0.14725E-02 0.21527E-02 0.23269E-02 0.21632E-02 0.20761E-02 0.22981E-02 0.27910E-02 0.34328E-02 0.41317E-02 0.48238E-02
 0.55113E-02 0.63003E-02 0.72751E-02 0.83062E-02 0.90849E-02 0.94024E-02 0.93336E-02 0.90900E-02 0.87308E-02 0.80804E-02
 0.69315E-02 0.53079E-02 0.35315E-02 0.20436E-02 0.11452E-02 0.87677E-03 0.10931E-02 0.15792E-02 0.20664E-02 0.22436E-02
 0.19251E-02 0.12508E-02 0.60526E-03 0.25789E-03 0.14850E-03 0.81970E-04 0.21144E-04 0.54867E-04 0.79164E-04 0.66325E-04
 0.58076E-05 -.21696E-04 0.20642E-04 0.46485E-04 0.56569E-05 0.21273E-04 0.23007E-03 0.53796E-03 0.68694E-03 0.56557E-03
 0.31770E-03 0.12462E-03 0.27158E-04 0.27878E-04 0.21829E-03 0.65299E-03 0.11612E-02 0.14457E-02 0.13954E-02 0.12118E-02
 0.12116E-02 0.15723E-02 0.22641E-02 0.31194E-02 0.39322E-02 0.45944E-02 0.52228E-02 0.60959E-02 0.73564E-02 0.87622E-02
 0.97952E-02 0.10051E-01 0.95359E-02 0.86189E-02 0.77299E-02 0.70519E-02 0.64303E-02 0.55655E-02 0.43423E-02 0.29914E-02
 0.19176E-02 0.13870E-02 0.13956E-02 0.17630E-02 0.22355E-02 0.25143E-02 0.23588E-02 0.17816E-02 0.10791E-02 0.56860E-03
 0.31777E-03 0.19306E-03 0.10233E-03 0.65703E-04 0.13511E-03 0.10790E-03 0.51569E-04 0.11533E-04 0.26040E-04 0.52258E-04
 0.38837E-04 0.35187E-04 0.13914E-03 0.33886E-03 0.48904E-03 0.46794E-03 0.30232E-03 0.11973E-03 0.35474E-04 0.10802E-03
 0.33357E-03 0.62287E-03 0.82245E-03 0.83100E-03 0.70509E-03 0.62980E-03 0.79916E-03 0.13250E-02 0.21841E-02 0.31799E-02
 0.40208E-02 0.45855E-02 0.51595E-02 0.62876E-02 0.82569E-02 0.10692E-01 0.12689E-01 0.13393E-01 0.12538E-01 0.10589E-01
 0.84444E-02 0.68899E-02 0.61277E-02 0.57376E-02 0.51299E-02 0.40907E-02 0.29074E-02 0.20266E-02 0.16732E-02 0.17736E-02
 0.20926E-02 0.23524E-02 0.23176E-02 0.19210E-02 0.13295E-02 0.80624E-03 0.48475E-03 0.31642E-03 0.21410E-03 0.15590E-03
 0.12546E-03 0.94443E-04 0.70384E-04 0.58587E-04 0.67848E-04 0.78425E-04 0.62919E-04 0.37639E-04 0.57442E-04 0.14744E-03
 0.26305E-03 0.33144E-03 0.32050E-03 0.26244E-03 0.22438E-03 0.25929E-03 0.36595E-03 0.48675E-03 0.55831E-03 0.57385E-03
 0.59251E-03 0.70101E-03 0.99183E-03 0.15518E-02 0.23822E-02 0.32873E-02 0.39452E-02 0.42558E-02 0.46697E-02 0.60385E-02
 0.89376E-02 0.13000E-01 0.16883E-01 0.18983E-01 0.18392E-01 0.15462E-01 0.11584E-01 0.83267E-02 0.65095E-02 0.58619E-02
 0.54968E-02 0.47315E-02 0.35433E-02 0.23750E-02 0.16421E-02 0.14392E-02 0.15798E-02 0.17785E-02 0.18045E-02 0.15769E-02
 0.11853E-02 0.80074E-03 0.53216E-03 0.37107E-03 0.26111E-03 0.17814E-03 0.30217E-04 0.13528E-05 0.26500E-04 0.84753E-04
 0.12488E-03 0.11028E-03 0.58551E-04 0.24559E-04 0.44925E-04 0.10929E-03 0.18351E-03 0.24468E-03 0.28798E-03 0.31261E-03
 0.31442E-03 0.29340E-03 0.26740E-03 0.27879E-03 0.37544E-03 0.56508E-03 0.79321E-03 0.10048E-02 0.12496E-02 0.16832E-02
 0.23858E-02 0.31650E-02 0.36323E-02 0.36256E-02 0.36421E-02 0.47866E-02 0.80610E-02 0.13416E-01 0.19335E-01 0.23459E-01
 0.23966E-01 0.20760E-01 0.15515E-01 0.10532E-01 0.73073E-02 0.58777E-02 0.52916E-02 0.45915E-02 0.34659E-02 0.22138E-02
 0.12895E-02 0.90293E-03 0.92790E-03 0.10701E-02 0.10971E-02 0.95659E-03 0.73339E-03 0.52898E-03 0.38235E-03 0.27682E-03
 0.18551E-03 0.99392E-04 -.52247E-06 -.23526E-04 0.72624E-05 0.90539E-04 0.15086E-03 0.12267E-03 0.42128E-04 0.97608E-05
 0.66636E-04 0.14857E-03 0.17130E-03 0.12835E-03 0.85792E-04 0.96542E-04 0.13962E-03 0.14901E-03 0.10529E-03 0.92824E-04
 0.23343E-03 0.53377E-03 0.82992E-03 0.95942E-03 0.10123E-02 0.13353E-02 0.21849E-02 0.33502E-02 0.41923E-02 0.41906E-02
 0.35991E-02 0.36229E-02 0.57872E-02 0.10751E-01 0.17395E-01 0.23081E-01 0.25183E-01 0.22848E-01 0.17525E-01 0.11833E-01
 0.77557E-02 0.56721E-02 0.47422E-02 0.39617E-02 0.28966E-02 0.17192E-02 0.81926E-03 0.41513E-03 0.41188E-03 0.52915E-03
 0.54637E-03 0.43829E-03 0.30209E-03 0.20657E-03 0.14540E-03 0.96976E-04 0.61011E-04 0.33068E-04 0.70781E-04 0.50122E-04
 0.39800E-04 0.77687E-04 0.12025E-03 0.99309E-04 0.31503E-04 0.10047E-04 0.77822E-04 0.15851E-03 0.14365E-03 0.23189E-04
 -.10089E-03 -.12661E-03 -.58740E-04 0.56279E-05 0.12453E-05 -.61071E-05 0.11530E-03 0.36871E-03 0.55216E-03 0.49466E-03
 0.42187E-03 0.98074E-03 0.27101E-02 0.53656E-02 0.77983E-02 0.86696E-02 0.75421E-02 0.54909E-02 0.46336E-02 0.67110E-02
 0.11647E-01 0.17265E-01 0.20615E-01 0.20000E-01 0.16075E-01 0.11117E-01 0.72377E-02 0.51252E-02 0.41594E-02 0.34049E-02
 0.24159E-02 0.13347E-02 0.51984E-03 0.16760E-03 0.18625E-03 0.31981E-03 0.36696E-03 0.29888E-03 0.19498E-03 0.11242E-03
 0.51753E-04 0.13959E-04 0.18536E-04 0.54200E-04 0.10746E-03 0.80670E-04 0.44781E-04 0.38769E-04 0.54503E-04 0.50891E-04
 0.24009E-04 0.22149E-04 0.74424E-04 0.13580E-03 0.13387E-03 0.59147E-04 -.19987E-04 -.36320E-04 0.22857E-06 0.19785E-04
 -.13157E-04 -.36863E-04 0.40411E-04 0.18564E-03 0.21313E-03 0.62118E-04 0.20608E-03 0.16734E-02 0.53422E-02 0.10908E-01
 0.16485E-01 0.19483E-01 0.18310E-01 0.13651E-01 0.82411E-02 0.51773E-02 0.59018E-02 0.93198E-02 0.12705E-01 0.13703E-01
 0.11866E-01 0.85947E-02 0.57373E-02 0.41863E-02 0.35916E-02 0.31169E-02 0.23054E-02 0.13103E-02 0.53514E-03 0.20538E-03
 0.24067E-03 0.40499E-03 0.50934E-03 0.49908E-03 0.41186E-03 0.29789E-03 0.18854E-03 0.11047E-03 0.85014E-04 0.99516E-04
 0.44728E-04 0.11642E-04 -.66861E-05 -.75388E-05 0.22682E-05 0.95837E-05 0.12068E-04 0.24137E-04 0.57048E-04 0.10005E-03
 0.13385E-03 0.15746E-03 0.18326E-03 0.20293E-03 0.17914E-03 0.90504E-04 -.18079E-04 -.53255E-04 0.27457E-04 0.12621E-03
 0.90382E-04 0.62281E-04 0.88325E-03 0.40285E-02 0.10693E-01 0.20421E-01 0.30452E-01 0.36732E-01 0.36262E-01 0.29120E-01
 0.18585E-01 0.91912E-02 0.41008E-02 0.35904E-02 0.55052E-02 0.71218E-02 0.69775E-02 0.54301E-02 0.37878E-02 0.29689E-02
 0.28687E-02 0.27876E-02 0.22595E-02 0.14166E-02 0.69676E-03 0.37500E-03 0.40277E-03 0.56927E-03 0.70243E-03 0.73308E-03
 0.66325E-03 0.52909E-03 0.37826E-03 0.24866E-03 0.15457E-03 0.90405E-04 -.46558E-05 -.30517E-04 -.31011E-04 -.18218E-04
 -.49476E-05 0.30128E-05 0.69694E-05 0.12131E-04 0.23337E-04 0.41711E-04 0.67815E-04 0.10612E-03 0.15456E-03 0.18495E-03
 0.15188E-03 0.46697E-04 -.58470E-04 -.55692E-04 0.71945E-04 0.18622E-03 0.17988E-03 0.43454E-03 0.22258E-02 0.74980E-02
 0.17678E-01 0.32039E-01 0.46923E-01 0.56931E-01 0.57746E-01 0.48777E-01 0.33655E-01 0.18163E-01 0.70767E-02 0.20191E-02
 0.14865E-02 0.26139E-02 0.32213E-02 0.27965E-02 0.20469E-02 0.17377E-02 0.19222E-02 0.20910E-02 0.18352E-02 0.12372E-02
 0.67876E-03 0.42271E-03 0.44481E-03 0.57579E-03 0.68462E-03 0.72021E-03 0.67065E-03 0.54721E-03 0.38916E-03 0.24286E-03
 0.13047E-03 0.49497E-04 0.38286E-04 0.31834E-04 0.18418E-04 0.13206E-04 0.21837E-04 0.34205E-04 0.37107E-04 0.29128E-04
 0.18493E-04 0.74807E-05 -.10447E-04 -.32117E-04 -.36519E-04 -.13183E-04 0.94144E-05 -.44433E-05 -.28193E-04 0.22092E-04
 0.16378E-03 0.26912E-03 0.29238E-03 0.81969E-03 0.34922E-02 0.10625E-01 0.23769E-01 0.41896E-01 0.60649E-01 0.73690E-01
 0.75805E-01 0.65878E-01 0.47664E-01 0.27748E-01 0.12068E-01 0.32746E-02 0.40213E-03 0.56960E-03 0.11945E-02 0.12163E-02
 0.88150E-03 0.74936E-03 0.94061E-03 0.11366E-02 0.10427E-02 0.70115E-03 0.37556E-03 0.24773E-03 0.29002E-03 0.37861E-03
 0.43732E-03 0.45404E-03 0.42432E-03 0.33844E-03 0.21472E-03 0.10383E-03 0.45531E-04 0.34921E-04 0.82033E-04 0.88240E-04
 0.61309E-04 0.36009E-04 0.45398E-04 0.85186E-04 0.12156E-03 0.13070E-03 0.11834E-03 0.99674E-04 0.79785E-04 0.67453E-04
 0.89353E-04 0.15922E-03 0.23705E-03 0.25995E-03 0.23167E-03 0.23598E-03 0.30751E-03 0.34113E-03 0.33451E-03 0.97227E-03
 0.40454E-02 0.11997E-01 0.26383E-01 0.46033E-01 0.66326E-01 0.80618E-01 0.83400E-01 0.73338E-01 0.54139E-01 0.32593E-01
 0.15038E-01 0.45636E-02 0.49836E-03 0.36875E-04 0.48103E-03 0.55293E-03 0.28521E-03 0.12353E-03 0.21619E-03 0.35769E-03
 0.33560E-03 0.16983E-03 0.29224E-04 0.16195E-04 0.88074E-04 0.15157E-03 0.16886E-03 0.15937E-03 0.14110E-03 0.10795E-03
 0.58025E-04 0.15520E-04 0.10572E-04 0.44072E-04 0.42777E-04 0.41540E-04 0.26482E-04 0.11595E-04 0.42981E-04 0.13661E-03
 0.24520E-03 0.30724E-03 0.31305E-03 0.30727E-03 0.34412E-03 0.45751E-03 0.64724E-03 0.85451E-03 0.96551E-03 0.89867E-03
 0.70914E-03 0.55524E-03 0.51176E-03 0.47123E-03 0.40842E-03 0.95265E-03 0.37689E-02 0.11125E-01 0.24476E-01 0.42746E-01
 0.61628E-01 0.74895E-01 0.77385E-01 0.67889E-01 0.49942E-01 0.29916E-01 0.13692E-01 0.40866E-02 0.42659E-03 0.70002E-04
 0.48404E-03 0.47924E-03 0.12214E-03 -.12021E-03 -.78965E-04 0.55015E-04 0.72944E-04 -.19689E-04 -.87028E-04 -.57853E-04
 0.19727E-04 0.68165E-04 0.62996E-04 0.32077E-04 0.14384E-04 0.28626E-04 0.61602E-04 0.81216E-04 0.71408E-04 0.50559E-04
 0.10512E-05 -.17219E-04 -.25399E-04 -.28208E-04 0.32011E-04 0.18483E-03 0.36142E-03 0.46054E-03 0.46248E-03 0.44572E-03
 0.51271E-03 0.72459E-03 0.10673E-02 0.14232E-02 0.16008E-02 0.14797E-02 0.11539E-02 0.86914E-03 0.76593E-03 0.73858E-03
 0.68377E-03 0.10326E-02 0.30971E-02 0.87327E-02 0.19188E-01 0.33659E-01 0.48635E-01 0.58958E-01 0.60390E-01 0.52104E-01
 0.37286E-01 0.21353E-01 0.90453E-02 0.23534E-02 0.35716E-03 0.64970E-03 0.11167E-02 0.93041E-03 0.37921E-03 0.21702E-04
 0.24041E-04 0.15154E-03 0.16495E-03 0.67254E-04 -.43155E-05 0.13596E-04 0.71700E-04 0.10475E-03 0.94502E-04 0.61010E-04
 0.43568E-04 0.77836E-04 0.15173E-03 0.19601E-03 0.15689E-03 0.66436E-04 0.47546E-04 0.24030E-04 -.85790E-05 -.25046E-04
 0.55332E-04 0.24370E-03 0.42787E-03 0.48930E-03 0.43291E-03 0.36372E-03 0.37958E-03 0.53182E-03 0.83425E-03 0.12204E-02
 0.15105E-02 0.15299E-02 0.13055E-02 0.10746E-02 0.10375E-02 0.11447E-02 0.12375E-02 0.14876E-02 0.27309E-02 0.62760E-02
 0.13076E-01 0.22642E-01 0.32508E-01 0.39001E-01 0.39179E-01 0.32706E-01 0.22211E-01 0.11767E-01 0.46109E-02 0.16646E-02
 0.16771E-02 0.25489E-02 0.27757E-02 0.20959E-02 0.11256E-02 0.50525E-03 0.34944E-03 0.36235E-03 0.28827E-03 0.13770E-03
 0.42252E-04 0.45301E-04 0.87989E-04 0.11407E-03 0.11350E-03 0.97637E-04 0.88922E-04 0.11583E-03 0.17321E-03 0.20524E-03
 0.16910E-03 0.96562E-04 0.10544E-03 0.94042E-04 0.44134E-04 0.29598E-04 0.13717E-03 0.32720E-03 0.44606E-03 0.40089E-03
 0.25839E-03 0.13941E-03 0.86662E-04 0.97565E-04 0.22147E-03 0.51187E-03 0.88696E-03 0.11495E-02 0.12015E-02 0.11764E-02
 0.12917E-02 0.15997E-02 0.19680E-02 0.23569E-02 0.31181E-02 0.49662E-02 0.84949E-02 0.13478E-01 0.18506E-01 0.21464E-01
 0.20772E-01 0.16549E-01 0.10721E-01 0.58744E-02 0.36739E-02 0.40144E-02 0.54074E-02 0.61820E-02 0.55653E-02 0.39387E-02
 0.22464E-02 0.11611E-02 0.70638E-03 0.51715E-03 0.31617E-03 0.99890E-04 -.24627E-04 -.34086E-04 0.59218E-05 0.37449E-04
 0.48286E-04 0.47416E-04 0.49185E-04 0.67303E-04 0.95186E-04 0.10690E-03 0.97093E-04 0.93659E-04 0.65423E-04 0.69249E-04
 0.53283E-04 0.96827E-04 0.24960E-03 0.42260E-03 0.45803E-03 0.31494E-03 0.11633E-03 -.11037E-04 -.69601E-04 -.10878E-03
 -.75890E-04 0.14520E-03 0.54752E-03 0.95055E-03 0.11895E-02 0.13089E-02 0.15149E-02 0.19541E-02 0.25845E-02 0.32729E-02
 0.39960E-02 0.49274E-02 0.62829E-02 0.80002E-02 0.95352E-02 0.10075E-01 0.91551E-02 0.72084E-02 0.54701E-02 0.51722E-02
 0.66211E-02 0.89183E-02 0.10560E-01 0.10447E-01 0.85511E-02 0.57929E-02 0.33134E-02 0.17456E-02 0.10134E-02 0.67918E-03
 0.40959E-03 0.14782E-03 -.26193E-04 -.79134E-04 -.60435E-04 -.34630E-04 -.29709E-04 -.36286E-04 -.30754E-04 -.40399E-05
 0.24121E-04 0.30080E-04 0.24190E-04 0.37327E-04 -.54664E-05 0.27658E-05 0.39418E-04 0.14566E-03 0.32453E-03 0.48137E-03
 0.49214E-03 0.34336E-03 0.15602E-03 0.49231E-04 0.30271E-04 0.59765E-04 0.17461E-03 0.46081E-03 0.90027E-03 0.13224E-02
 0.15600E-02 0.16308E-02 0.17346E-02 0.20841E-02 0.27493E-02 0.36287E-02 0.45242E-02 0.52465E-02 0.56853E-02 0.58009E-02
 0.55701E-02 0.50147E-02 0.43689E-02 0.41947E-02 0.51645E-02 0.75261E-02 0.10686E-01 0.13363E-01 0.14304E-01 0.13029E-01
 0.10085E-01 0.66495E-02 0.38212E-02 0.20943E-02 0.13024E-02 0.96705E-03 0.71157E-03 0.43305E-03 0.20048E-03 0.74780E-04
 0.34819E-04 0.20921E-04 -.10110E-05 -.22095E-04 -.17200E-04 0.17906E-04 0.54296E-04 0.58386E-04 0.30736E-04 0.26914E-05
 0.29049E-04 0.29865E-04 0.71290E-04 0.16486E-03 0.30761E-03 0.45071E-03 0.51752E-03 0.47768E-03 0.38624E-03 0.32700E-03
 0.33716E-03 0.42086E-03 0.61567E-03 0.97840E-03 0.14769E-02 0.19418E-02 0.21812E-02 0.21545E-02 0.20229E-02 0.20419E-02
 0.24061E-02 0.31464E-02 0.40986E-02 0.49540E-02 0.53986E-02 0.52830E-02 0.47185E-02 0.40648E-02 0.38451E-02 0.45932E-02
 0.65849E-02 0.95357E-02 0.12532E-01 0.14398E-01 0.14327E-01 0.12337E-01 0.92133E-02 0.60307E-02 0.36058E-02 0.22007E-02
 0.15806E-02 0.13131E-02 0.10812E-02 0.80882E-03 0.56676E-03 0.41180E-03 0.32436E-03 0.25893E-03 0.20120E-03 0.16423E-03
 0.15526E-03 0.16290E-03 0.16664E-03 0.14941E-03 0.10851E-03 0.60358E-04 0.12883E-03 0.11438E-03 0.11367E-03 0.13871E-03
 0.20748E-03 0.32602E-03 0.47066E-03 0.60220E-03 0.69905E-03 0.76375E-03 0.80260E-03 0.83098E-03 0.91190E-03 0.11511E-02
 0.16001E-02 0.21533E-02 0.25766E-02 0.26743E-02 0.24511E-02 0.21274E-02 0.20112E-02 0.23223E-02 0.30640E-02 0.39982E-02
 0.47552E-02 0.50476E-02 0.48725E-02 0.45629E-02 0.46379E-02 0.55192E-02 0.72563E-02 0.94111E-02 0.11201E-01 0.11873E-01
 0.11104E-01 0.91684E-02 0.67512E-02 0.45671E-02 0.30326E-02 0.21707E-02 0.17413E-02 0.14682E-02 0.12084E-02 0.97300E-03
 0.82187E-03 0.75652E-03 0.71492E-03 0.64468E-03 0.54938E-03 0.46035E-03 0.38959E-03 0.32699E-03 0.26699E-03 0.21630E-03
 0.17913E-03 0.15115E-03 0.14061E-03 0.10576E-03 0.72327E-04 0.63232E-04 0.90300E-04 0.16807E-03 0.33166E-03 0.60506E-03
 0.94104E-03 0.12166E-02 0.13136E-02 0.12153E-02 0.10353E-02 0.96641E-03 0.11797E-02 0.17098E-02 0.23868E-02 0.28988E-02
 0.29931E-02 0.26802E-02 0.22557E-02 0.21047E-02 0.24448E-02 0.31968E-02 0.40529E-02 0.46776E-02 0.49259E-02 0.49514E-02
 0.51136E-02 0.57144E-02 0.67436E-02 0.78366E-02 0.84873E-02 0.83553E-02 0.74492E-02 0.60851E-02 0.46819E-02 0.35394E-02
 0.27318E-02 0.21593E-02 0.16903E-02 0.12742E-02 0.95189E-03 0.78827E-03 0.79861E-03 0.91895E-03 0.10323E-02 0.10353E-02
 0.90306E-03 0.69718E-03 0.50458E-03 0.36871E-03 0.28064E-03 0.22064E-03 0.18336E-03 0.16282E-03 0.82412E-04 0.30885E-04
 -.18235E-04 -.16584E-04 0.20266E-04 0.55650E-04 0.15763E-03 0.46687E-03 0.97966E-03 0.14483E-02 0.15896E-02 0.13616E-02
 0.97141E-03 0.66671E-03 0.61632E-03 0.94528E-03 0.16993E-02 0.26855E-02 0.34681E-02 0.36816E-02 0.33713E-02 0.29624E-02
 0.28868E-02 0.32663E-02 0.39135E-02 0.45379E-02 0.49407E-02 0.51125E-02 0.52276E-02 0.55067E-02 0.60032E-02 0.65085E-02
 0.67024E-02 0.64213E-02 0.57754E-02 0.50205E-02 0.43363E-02 0.37214E-02 0.30670E-02 0.23110E-02 0.15270E-02 0.87736E-03
 0.49177E-03 0.39637E-03 0.53781E-03 0.82109E-03 0.11029E-02 0.12102E-02 0.10519E-02 0.71842E-03 0.41188E-03 0.25438E-03
 0.20555E-03 0.17273E-03 0.13308E-03 0.10768E-03 0.15399E-03 0.10304E-03 -.17263E-05 -.36335E-04 0.61897E-05 0.18723E-04
 0.29327E-04 0.25801E-03 0.78886E-03 0.13224E-02 0.14490E-02 0.11172E-02 0.64921E-03 0.32594E-03 0.18898E-03 0.29997E-03
 0.91480E-03 0.21560E-02 0.36235E-02 0.46051E-02 0.47377E-02 0.43270E-02 0.39783E-02 0.40412E-02 0.44537E-02 0.49624E-02
 0.53494E-02 0.55195E-02 0.55357E-02 0.55933E-02 0.58520E-02 0.62442E-02 0.65091E-02 0.64509E-02 0.61201E-02 0.57011E-02
 0.52629E-02 0.46786E-02 0.37956E-02 0.26499E-02 0.14940E-02 0.61928E-03 0.16245E-03 0.78239E-04 0.25413E-03 0.58379E-03
 0.92069E-03 0.10603E-02 0.88305E-03 0.50644E-03 0.19521E-03 0.89776E-04 0.10088E-03 0.96225E-04 0.81211E-04 0.11588E-03
 0.43059E-03 0.39385E-03 0.17336E-03 0.11456E-04 0.10906E-04 0.24544E-04 -.23009E-04 0.76286E-04 0.50124E-03 0.10141E-02
 0.11551E-02 0.80858E-03 0.32382E-03 0.32922E-04 -.76228E-04 -.52178E-04 0.39086E-03 0.15918E-02 0.33269E-02 0.47917E-02
 0.53375E-02 0.50805E-02 0.46862E-02 0.46834E-02 0.51058E-02 0.56669E-02 0.60750E-02 0.61917E-02 0.60761E-02 0.59635E-02
 0.60998E-02 0.65002E-02 0.69049E-02 0.70270E-02 0.68126E-02 0.64091E-02 0.59138E-02 0.52394E-02 0.42532E-02 0.29976E-02
 0.17312E-02 0.75419E-03 0.21527E-03 0.78164E-04 0.21978E-03 0.49988E-03 0.74645E-03 0.77910E-03 0.54551E-03 0.21029E-03
 0.86538E-05 -.36017E-05 0.32251E-04 0.25388E-04 0.71018E-04 0.25269E-03 0.73024E-03 0.69327E-03 0.36478E-03 0.72135E-04
 0.74680E-05 0.27979E-04 -.26917E-04 -.12470E-04 0.31589E-03 0.85829E-03 0.11828E-02 0.10238E-02 0.56970E-03 0.17012E-03
 -.42307E-04 -.65936E-04 0.27375E-03 0.12312E-02 0.26885E-02 0.40321E-02 0.46638E-02 0.45821E-02 0.43478E-02 0.45123E-02
 0.51600E-02 0.59510E-02 0.64712E-02 0.65282E-02 0.62418E-02 0.59470E-02 0.59520E-02 0.62901E-02 0.66822E-02 0.67800E-02
 0.64599E-02 0.58743E-02 0.52400E-02 0.46217E-02 0.39299E-02 0.30856E-02 0.21502E-02 0.13032E-02 0.72490E-03 0.49900E-03
 0.57651E-03 0.78433E-03 0.88762E-03 0.72946E-03 0.36829E-03 0.42651E-04 -.64733E-04 -.12285E-04 0.18543E-04 0.55846E-05
 0.12287E-03 0.44214E-03 0.84607E-03 0.77658E-03 0.42517E-03 0.10592E-03 0.89128E-05 0.22043E-04 -.12902E-04 0.39953E-06
 0.31044E-03 0.94317E-03 0.15696E-02 0.17999E-02 0.15397E-02 0.10193E-02 0.55391E-03 0.36199E-03 0.55545E-03 0.11478E-02
 0.19859E-02 0.27462E-02 0.31338E-02 0.31516E-02 0.31465E-02 0.35258E-02 0.43828E-02 0.53800E-02 0.60101E-02 0.60058E-02
 0.55426E-02 0.50744E-02 0.49605E-02 0.52031E-02 0.54850E-02 0.54452E-02 0.49553E-02 0.41940E-02 0.34886E-02 0.30655E-02
 0.29061E-02 0.28015E-02 0.25405E-02 0.20765E-02 0.15578E-02 0.12116E-02 0.11567E-02 0.12803E-02 0.13049E-02 0.10323E-02
 0.54495E-03 0.12913E-03 -.24651E-04 0.40885E-05 0.33946E-04 0.57889E-04 0.23109E-03 0.57692E-03 0.75171E-03 0.64505E-03
 0.36182E-03 0.12100E-03 0.35647E-04 0.32292E-04 0.22011E-04 0.76023E-04 0.37635E-03 0.10022E-02 0.17861E-02 0.23835E-02
 0.25069E-02 0.21452E-02 0.15825E-02 0.11793E-02 0.11042E-02 0.12655E-02 0.14700E-02 0.15969E-02 0.16308E-02 0.16340E-02
 0.17635E-02 0.22371E-02 0.31274E-02 0.41532E-02 0.47968E-02 0.47382E-02 0.41667E-02 0.36056E-02 0.34354E-02 0.36074E-02