Screening bandgap                       
   1.00000000000000     
     6.350000    0.000000    0.000000
     0.000000    6.350000    0.000000
     0.000000    0.000000    6.350000
   C    H 
     1     4
Direct
  0.500000  0.500000  0.500000
  0.400987  0.400987  0.400987
  0.599013  0.599013  0.400987
  0.400987  0.599013  0.599013
  0.599013  0.400987  0.599013
 
   56   56   56
 0.53967E-05 0.53452E-05 0.16122E-05 -.16955E-05 0.12421E-04 0.39190E-04 0.40825E-04 0.56766E-05 -.81553E-05 0.59153E-04
 0.16836E-03 0.20930E-03 0.14091E-03 0.45702E-04 0.16459E-04 0.39983E-04 0.41938E-04 0.11304E-04 0.14513E-04 0.89591E-04
 0.18560E-03 0.22744E-03 0.20170E-03 0.15366E-03 0.12621E-03 0.12858E-03 0.14933E-03 0.17236E-03 0.18235E-03 0.17236E-03
 0.14933E-03 0.12858E-03 0.12621E-03 0.15366E-03 0.20170E-03 0.22745E-03 0.18560E-03 0.89591E-04 0.14513E-04 0.11304E-04
 0.41938E-04 0.39983E-04 0.16459E-04 0.45702E-04 0.14091E-03 0.20930E-03 0.16836E-03 0.59152E-04 -.81553E-05 0.56767E-05
 0.40825E-04 0.39190E-04 0.12421E-04 -.16955E-05 0.16122E-05 0.53452E-05 0.53452E-05 0.61285E-05 0.40253E-05 -.57261E-06
 0.57009E-05 0.23136E-04 0.26086E-04 0.42063E-05 -.28653E-05 0.47809E-04 0.12833E-03 0.15839E-03 0.10720E-03 0.34584E-04
 0.90227E-05 0.22830E-04 0.24402E-04 0.76429E-05 0.20031E-04 0.84871E-04 0.16014E-03 0.18970E-03 0.16647E-03 0.12720E-03
 0.10511E-03 0.10702E-03 0.12389E-03 0.14275E-03 0.15098E-03 0.14275E-03 0.12389E-03 0.10702E-03 0.10511E-03 0.12720E-03
 0.16647E-03 0.18970E-03 0.16014E-03 0.84871E-04 0.20031E-04 0.76429E-05 0.24402E-04 0.22830E-04 0.90227E-05 0.34584E-04
 0.10720E-03 0.15839E-03 0.12833E-03 0.47809E-04 -.28653E-05 0.42064E-05 0.26086E-04 0.23136E-04 0.57009E-05 -.57261E-06
 0.40253E-05 0.61285E-05 0.16122E-05 0.40253E-05 0.72757E-05 0.67160E-05 0.50937E-05 0.60284E-05 0.60409E-05 0.26675E-05
 0.50106E-05 0.23130E-04 0.48112E-04 0.56756E-04 0.40022E-04 0.14978E-04 0.23483E-05 0.32325E-05 0.76133E-05 0.16417E-04
 0.39902E-04 0.75938E-04 0.10436E-03 0.10790E-03 0.90390E-04 0.69749E-04 0.59409E-04 0.61116E-04 0.69946E-04 0.79374E-04
 0.83396E-04 0.79374E-04 0.69946E-04 0.61116E-04 0.59409E-04 0.69749E-04 0.90390E-04 0.10790E-03 0.10436E-03 0.75938E-04
 0.39902E-04 0.16417E-04 0.76133E-05 0.32325E-05 0.23483E-05 0.14977E-04 0.40022E-04 0.56756E-04 0.48112E-04 0.23130E-04
 0.50105E-05 0.26675E-05 0.60409E-05 0.60284E-05 0.50937E-05 0.67160E-05 0.72757E-05 0.40253E-05 -.16955E-05 -.57261E-06
 0.67160E-05 0.22911E-04 0.38515E-04 0.39818E-04 0.26275E-04 0.11248E-04 0.50120E-05 0.47932E-05 0.35958E-05 0.12763E-05
 0.22292E-05 0.77122E-05 0.16489E-04 0.29705E-04 0.48472E-04 0.67419E-04 0.76637E-04 0.71449E-04 0.56752E-04 0.40993E-04
 0.29268E-04 0.22952E-04 0.21868E-04 0.24194E-04 0.26667E-04 0.27397E-04 0.27295E-04 0.27397E-04 0.26667E-04 0.24194E-04
 0.21868E-04 0.22952E-04 0.29268E-04 0.40993E-04 0.56752E-04 0.71449E-04 0.76636E-04 0.67419E-04 0.48472E-04 0.29705E-04
 0.16489E-04 0.77122E-05 0.22292E-05 0.12763E-05 0.35958E-05 0.47932E-05 0.50119E-05 0.11248E-04 0.26275E-04 0.39818E-04
 0.38515E-04 0.22911E-04 0.67160E-05 -.57261E-06 0.12421E-04 0.57009E-05 0.50937E-05 0.38515E-04 0.93883E-04 0.12308E-03
 0.96713E-04 0.39336E-04 0.10798E-05 0.30803E-05 0.22041E-04 0.25812E-04 0.12506E-04 0.97457E-05 0.40716E-04 0.96829E-04
 0.14379E-03 0.15191E-03 0.12014E-03 0.72621E-04 0.35220E-04 0.17018E-04 0.12071E-04 0.12219E-04 0.13554E-04 0.13745E-04
 0.10504E-04 0.49385E-05 0.20700E-05 0.49385E-05 0.10504E-04 0.13745E-04 0.13554E-04 0.12219E-04 0.12071E-04 0.17018E-04
 0.35220E-04 0.72621E-04 0.12014E-03 0.15191E-03 0.14379E-03 0.96829E-04 0.40716E-04 0.97457E-05 0.12506E-04 0.25812E-04
 0.22041E-04 0.30803E-05 0.10798E-05 0.39335E-04 0.96713E-04 0.12308E-03 0.93882E-04 0.38515E-04 0.50937E-05 0.57009E-05
 0.39190E-04 0.23136E-04 0.60284E-05 0.39818E-04 0.12308E-03 0.18643E-03 0.16457E-03 0.74766E-04 0.31266E-05 0.74375E-05
 0.53459E-04 0.65407E-04 0.26668E-04 0.13364E-05 0.50691E-04 0.15360E-03 0.22832E-03 0.22055E-03 0.14976E-03 0.74022E-04
 0.31864E-04 0.24270E-04 0.34136E-04 0.45672E-04 0.48970E-04 0.40143E-04 0.22833E-04 0.63617E-05 -.30281E-06 0.63617E-05
 0.22833E-04 0.40143E-04 0.48970E-04 0.45672E-04 0.34136E-04 0.24270E-04 0.31864E-04 0.74023E-04 0.14976E-03 0.22055E-03
 0.22832E-03 0.15360E-03 0.50691E-04 0.13364E-05 0.26668E-04 0.65407E-04 0.53459E-04 0.74375E-05 0.31265E-05 0.74766E-04
 0.16457E-03 0.18643E-03 0.12308E-03 0.39818E-04 0.60284E-05 0.23136E-04 0.40825E-04 0.26086E-04 0.60409E-05 0.26275E-04
 0.96713E-04 0.16457E-03 0.16160E-03 0.85091E-04 0.10268E-04 0.33259E-05 0.40869E-04 0.47647E-04 0.60920E-05 -.13878E-04
 0.51510E-04 0.17048E-03 0.24834E-03 0.23165E-03 0.15147E-03 0.73394E-04 0.37110E-04 0.46252E-04 0.85354E-04 0.12812E-03
 0.14520E-03 0.12380E-03 0.78871E-04 0.38608E-04 0.23155E-04 0.38608E-04 0.78871E-04 0.12380E-03 0.14520E-03 0.12812E-03
 0.85354E-04 0.46252E-04 0.37110E-04 0.73394E-04 0.15147E-03 0.23165E-03 0.24834E-03 0.17048E-03 0.51510E-04 -.13878E-04
 0.60920E-05 0.47647E-04 0.40869E-04 0.33259E-05 0.10268E-04 0.85091E-04 0.16160E-03 0.16457E-03 0.96713E-04 0.26275E-04
 0.60409E-05 0.26086E-04 0.56767E-05 0.42064E-05 0.26675E-05 0.11248E-04 0.39336E-04 0.74766E-04 0.85091E-04 0.55939E-04
 0.15865E-04 0.18301E-05 0.95420E-05 0.60778E-05 -.10320E-04 0.30062E-05 0.72934E-04 0.16343E-03 0.21058E-03 0.18993E-03
 0.13001E-03 0.73654E-04 0.50721E-04 0.78815E-04 0.15668E-03 0.24795E-03 0.29566E-03 0.27005E-03 0.19502E-03 0.12299E-03
 0.94536E-04 0.12299E-03 0.19502E-03 0.27005E-03 0.29566E-03 0.24795E-03 0.15668E-03 0.78815E-04 0.50721E-04 0.73654E-04
 0.13001E-03 0.18993E-03 0.21058E-03 0.16343E-03 0.72934E-04 0.30062E-05 -.10320E-04 0.60777E-05 0.95420E-05 0.18301E-05
 0.15865E-04 0.55939E-04 0.85091E-04 0.74766E-04 0.39335E-04 0.11248E-04 0.26675E-05 0.42064E-05 -.81553E-05 -.28653E-05
 0.50105E-05 0.50119E-05 0.10797E-05 0.31265E-05 0.10268E-04 0.15865E-04 0.22477E-04 0.36354E-04 0.51449E-04 0.56710E-04
 0.58795E-04 0.78264E-04 0.11788E-03 0.15193E-03 0.15602E-03 0.13312E-03 0.10156E-03 0.74811E-04 0.69173E-04 0.11379E-03
 0.22294E-03 0.35813E-03 0.44357E-03 0.43215E-03 0.34691E-03 0.25564E-03 0.21797E-03 0.25564E-03 0.34691E-03 0.43215E-03
 0.44357E-03 0.35813E-03 0.22294E-03 0.11379E-03 0.69173E-04 0.74811E-04 0.10156E-03 0.13312E-03 0.15602E-03 0.15193E-03
 0.11788E-03 0.78264E-04 0.58795E-04 0.56710E-04 0.51450E-04 0.36354E-04 0.22477E-04 0.15865E-04 0.10268E-04 0.31265E-05
 0.10797E-05 0.50119E-05 0.50105E-05 -.28653E-05 0.59152E-04 0.47809E-04 0.23130E-04 0.47931E-05 0.30804E-05 0.74375E-05
 0.33260E-05 0.18300E-05 0.36354E-04 0.11761E-03 0.20499E-03 0.24266E-03 0.21972E-03 0.17513E-03 0.14512E-03 0.12897E-03
 0.11129E-03 0.92389E-04 0.80740E-04 0.76417E-04 0.85317E-04 0.13619E-03 0.25240E-03 0.40467E-03 0.51745E-03 0.53505E-03
 0.47128E-03 0.39103E-03 0.35639E-03 0.39103E-03 0.47128E-03 0.53505E-03 0.51745E-03 0.40467E-03 0.25240E-03 0.13619E-03
 0.85317E-04 0.76417E-04 0.80740E-04 0.92389E-04 0.11129E-03 0.12897E-03 0.14512E-03 0.17513E-03 0.21972E-03 0.24266E-03
 0.20499E-03 0.11761E-03 0.36354E-04 0.18301E-05 0.33259E-05 0.74375E-05 0.30804E-05 0.47931E-05 0.23130E-04 0.47809E-04
 0.16836E-03 0.12833E-03 0.48112E-04 0.35957E-05 0.22041E-04 0.53459E-04 0.40869E-04 0.95420E-05 0.51449E-04 0.20499E-03
 0.38109E-03 0.44513E-03 0.36112E-03 0.21847E-03 0.12002E-03 0.86100E-04 0.79394E-04 0.77623E-04 0.85024E-04 0.99845E-04
 0.11680E-03 0.15633E-03 0.24994E-03 0.38680E-03 0.50471E-03 0.54940E-03 0.52574E-03 0.48197E-03 0.46220E-03 0.48197E-03
 0.52574E-03 0.54940E-03 0.50471E-03 0.38680E-03 0.24994E-03 0.15633E-03 0.11680E-03 0.99845E-04 0.85024E-04 0.77623E-04
 0.79394E-04 0.86100E-04 0.12002E-03 0.21847E-03 0.36112E-03 0.44513E-03 0.38109E-03 0.20499E-03 0.51449E-04 0.95420E-05
 0.40869E-04 0.53459E-04 0.22041E-04 0.35957E-05 0.48112E-04 0.12833E-03 0.20930E-03 0.15839E-03 0.56756E-04 0.12762E-05
 0.25812E-04 0.65407E-04 0.47647E-04 0.60778E-05 0.56710E-04 0.24266E-03 0.44513E-03 0.49646E-03 0.36438E-03 0.17518E-03
 0.60741E-04 0.39577E-04 0.60075E-04 0.95501E-04 0.14801E-03 0.19907E-03 0.22042E-03 0.22824E-03 0.27373E-03 0.37045E-03
 0.47025E-03 0.52381E-03 0.53263E-03 0.52718E-03 0.52469E-03 0.52718E-03 0.53263E-03 0.52381E-03 0.47025E-03 0.37045E-03
 0.27373E-03 0.22825E-03 0.22042E-03 0.19907E-03 0.14801E-03 0.95501E-04 0.60075E-04 0.39577E-04 0.60742E-04 0.17518E-03
 0.36438E-03 0.49646E-03 0.44513E-03 0.24266E-03 0.56710E-04 0.60778E-05 0.47647E-04 0.65407E-04 0.25812E-04 0.12762E-05
 0.56756E-04 0.15839E-03 0.14091E-03 0.10720E-03 0.40022E-04 0.22291E-05 0.12506E-04 0.26668E-04 0.60921E-05 -.10320E-04
 0.58795E-04 0.21972E-03 0.36112E-03 0.36438E-03 0.23526E-03 0.87368E-04 0.11322E-04 0.10458E-04 0.60508E-04 0.16323E-03
 0.30618E-03 0.42214E-03 0.44831E-03 0.40926E-03 0.39003E-03 0.43128E-03 0.49552E-03 0.53685E-03 0.55582E-03 0.57070E-03
 0.57846E-03 0.57070E-03 0.55582E-03 0.53685E-03 0.49552E-03 0.43128E-03 0.39003E-03 0.40926E-03 0.44831E-03 0.42214E-03
 0.30618E-03 0.16323E-03 0.60509E-04 0.10458E-04 0.11322E-04 0.87368E-04 0.23526E-03 0.36438E-03 0.36112E-03 0.21972E-03
 0.58795E-04 -.10320E-04 0.60921E-05 0.26668E-04 0.12506E-04 0.22292E-05 0.40022E-04 0.10720E-03 0.45702E-04 0.34584E-04
 0.14977E-04 0.77121E-05 0.97456E-05 0.13364E-05 -.13878E-04 0.30061E-05 0.78263E-04 0.17513E-03 0.21847E-03 0.17518E-03
 0.87368E-04 0.16811E-04 -.13579E-04 0.69156E-06 0.92578E-04 0.29375E-03 0.55411E-03 0.74503E-03 0.77812E-03 0.69604E-03
 0.61509E-03 0.59836E-03 0.62046E-03 0.63942E-03 0.65136E-03 0.66603E-03 0.67432E-03 0.66603E-03 0.65136E-03 0.63942E-03
 0.62046E-03 0.59836E-03 0.61509E-03 0.69604E-03 0.77812E-03 0.74503E-03 0.55411E-03 0.29375E-03 0.92579E-04 0.69166E-06
 -.13579E-04 0.16811E-04 0.87368E-04 0.17518E-03 0.21847E-03 0.17513E-03 0.78264E-04 0.30062E-05 -.13878E-04 0.13364E-05
 0.97456E-05 0.77121E-05 0.14977E-04 0.34584E-04 0.16459E-04 0.90227E-05 0.23482E-05 0.16489E-04 0.40716E-04 0.50691E-04
 0.51510E-04 0.72934E-04 0.11787E-03 0.14512E-03 0.12002E-03 0.60741E-04 0.11322E-04 -.13579E-04 -.21382E-04 0.17502E-04
 0.17406E-03 0.47273E-03 0.81909E-03 0.10561E-02 0.11022E-02 0.10143E-02 0.91170E-03 0.86223E-03 0.85458E-03 0.85483E-03
 0.85258E-03 0.85262E-03 0.85375E-03 0.85262E-03 0.85258E-03 0.85483E-03 0.85458E-03 0.86223E-03 0.91170E-03 0.10143E-02
 0.11022E-02 0.10561E-02 0.81909E-03 0.47273E-03 0.17406E-03 0.17502E-04 -.21382E-04 -.13579E-04 0.11322E-04 0.60742E-04
 0.12002E-03 0.14512E-03 0.11788E-03 0.72934E-04 0.51510E-04 0.50691E-04 0.40716E-04 0.16489E-04 0.23482E-05 0.90227E-05
 0.39983E-04 0.22830E-04 0.32326E-05 0.29705E-04 0.96829E-04 0.15360E-03 0.17048E-03 0.16343E-03 0.15193E-03 0.12897E-03
 0.86100E-04 0.39577E-04 0.10458E-04 0.69154E-06 0.17502E-04 0.10756E-03 0.32632E-03 0.66021E-03 0.10034E-02 0.12337E-02
 0.13094E-02 0.12840E-02 0.12399E-02 0.12198E-02 0.12165E-02 0.12067E-02 0.11819E-02 0.11542E-02 0.11421E-02 0.11542E-02
 0.11819E-02 0.12067E-02 0.12165E-02 0.12198E-02 0.12399E-02 0.12840E-02 0.13094E-02 0.12337E-02 0.10034E-02 0.66021E-03
 0.32632E-03 0.10756E-03 0.17502E-04 0.69166E-06 0.10458E-04 0.39577E-04 0.86100E-04 0.12897E-03 0.15193E-03 0.16343E-03
 0.17048E-03 0.15360E-03 0.96829E-04 0.29705E-04 0.32326E-05 0.22830E-04 0.41938E-04 0.24402E-04 0.76133E-05 0.48471E-04
 0.14379E-03 0.22832E-03 0.24834E-03 0.21058E-03 0.15602E-03 0.11129E-03 0.79394E-04 0.60075E-04 0.60508E-04 0.92578E-04
 0.17406E-03 0.32632E-03 0.55304E-03 0.81931E-03 0.10663E-02 0.12548E-02 0.13900E-02 0.15015E-02 0.16059E-02 0.16914E-02
 0.17319E-02 0.17122E-02 0.16456E-02 0.15731E-02 0.15420E-02 0.15731E-02 0.16456E-02 0.17122E-02 0.17319E-02 0.16914E-02
 0.16059E-02 0.15015E-02 0.13900E-02 0.12548E-02 0.10663E-02 0.81931E-03 0.55304E-03 0.32632E-03 0.17406E-03 0.92579E-04
 0.60509E-04 0.60075E-04 0.79394E-04 0.11129E-03 0.15602E-03 0.21058E-03 0.24834E-03 0.22832E-03 0.14379E-03 0.48472E-04
 0.76133E-05 0.24402E-04 0.11304E-04 0.76429E-05 0.16417E-04 0.67419E-04 0.15191E-03 0.22055E-03 0.23165E-03 0.18993E-03
 0.13312E-03 0.92389E-04 0.77623E-04 0.95501E-04 0.16322E-03 0.29375E-03 0.47273E-03 0.66021E-03 0.81931E-03 0.94445E-03
 0.10656E-02 0.12282E-02 0.14633E-02 0.17617E-02 0.20677E-02 0.23000E-02 0.23956E-02 0.23472E-02 0.22109E-02 0.20761E-02
 0.20210E-02 0.20761E-02 0.22109E-02 0.23472E-02 0.23956E-02 0.23000E-02 0.20677E-02 0.17617E-02 0.14633E-02 0.12282E-02
 0.10656E-02 0.94445E-03 0.81931E-03 0.66021E-03 0.47273E-03 0.29375E-03 0.16323E-03 0.95501E-04 0.77623E-04 0.92389E-04
 0.13312E-03 0.18993E-03 0.23165E-03 0.22055E-03 0.15191E-03 0.67419E-04 0.16417E-04 0.76429E-05 0.14513E-04 0.20031E-04
 0.39902E-04 0.76636E-04 0.12014E-03 0.14976E-03 0.15146E-03 0.13001E-03 0.10156E-03 0.80739E-04 0.85023E-04 0.14801E-03
 0.30618E-03 0.55411E-03 0.81909E-03 0.10034E-02 0.10663E-02 0.10656E-02 0.11178E-02 0.13209E-02 0.17007E-02 0.21994E-02
 0.26942E-02 0.30429E-02 0.31532E-02 0.30371E-02 0.28038E-02 0.25940E-02 0.25119E-02 0.25940E-02 0.28038E-02 0.30371E-02
 0.31532E-02 0.30429E-02 0.26942E-02 0.21994E-02 0.17007E-02 0.13209E-02 0.11178E-02 0.10656E-02 0.10663E-02 0.10034E-02
 0.81909E-03 0.55411E-03 0.30618E-03 0.14801E-03 0.85024E-04 0.80740E-04 0.10156E-03 0.13001E-03 0.15147E-03 0.14976E-03
 0.12014E-03 0.76636E-04 0.39902E-04 0.20031E-04 0.89591E-04 0.84871E-04 0.75938E-04 0.71449E-04 0.72621E-04 0.74022E-04
 0.73394E-04 0.73654E-04 0.74811E-04 0.76416E-04 0.99845E-04 0.19907E-03 0.42214E-03 0.74503E-03 0.10561E-02 0.12337E-02
 0.12548E-02 0.12282E-02 0.13209E-02 0.16478E-02 0.22072E-02 0.28842E-02 0.34965E-02 0.38675E-02 0.39113E-02 0.36800E-02
 0.33322E-02 0.30440E-02 0.29348E-02 0.30440E-02 0.33322E-02 0.36800E-02 0.39113E-02 0.38675E-02 0.34965E-02 0.28842E-02
 0.22072E-02 0.16478E-02 0.13209E-02 0.12282E-02 0.12548E-02 0.12337E-02 0.10561E-02 0.74503E-03 0.42214E-03 0.19907E-03
 0.99845E-04 0.76417E-04 0.74811E-04 0.73654E-04 0.73394E-04 0.74022E-04 0.72621E-04 0.71449E-04 0.75938E-04 0.84871E-04
 0.18560E-03 0.16014E-03 0.10436E-03 0.56752E-04 0.35220E-04 0.31864E-04 0.37110E-04 0.50721E-04 0.69172E-04 0.85317E-04
 0.11680E-03 0.22042E-03 0.44831E-03 0.77811E-03 0.11022E-02 0.13094E-02 0.13900E-02 0.14633E-02 0.17007E-02 0.22072E-02
 0.29450E-02 0.37416E-02 0.43683E-02 0.46496E-02 0.45464E-02 0.41681E-02 0.37086E-02 0.33538E-02 0.32227E-02 0.33538E-02
 0.37086E-02 0.41681E-02 0.45464E-02 0.46496E-02 0.43683E-02 0.37416E-02 0.29450E-02 0.22072E-02 0.17007E-02 0.14633E-02
 0.13900E-02 0.13094E-02 0.11022E-02 0.77812E-03 0.44831E-03 0.22042E-03 0.11680E-03 0.85317E-04 0.69173E-04 0.50721E-04
 0.37110E-04 0.31864E-04 0.35220E-04 0.56753E-04 0.10436E-03 0.16014E-03 0.22745E-03 0.18970E-03 0.10790E-03 0.40993E-04
 0.17018E-04 0.24270E-04 0.46252E-04 0.78815E-04 0.11379E-03 0.13619E-03 0.15633E-03 0.22824E-03 0.40926E-03 0.69604E-03
 0.10143E-02 0.12840E-02 0.15015E-02 0.17617E-02 0.21994E-02 0.28842E-02 0.37416E-02 0.45604E-02 0.50968E-02 0.52070E-02
 0.49192E-02 0.44005E-02 0.38612E-02 0.34722E-02 0.33323E-02 0.34722E-02 0.38612E-02 0.44005E-02 0.49192E-02 0.52070E-02
 0.50968E-02 0.45604E-02 0.37416E-02 0.28842E-02 0.21994E-02 0.17617E-02 0.15015E-02 0.12840E-02 0.10143E-02 0.69604E-03
 0.40926E-03 0.22824E-03 0.15633E-03 0.13619E-03 0.11379E-03 0.78815E-04 0.46252E-04 0.24270E-04 0.17018E-04 0.40993E-04
 0.10790E-03 0.18970E-03 0.20170E-03 0.16647E-03 0.90391E-04 0.29268E-04 0.12071E-04 0.34136E-04 0.85354E-04 0.15668E-03
 0.22294E-03 0.25240E-03 0.24994E-03 0.27373E-03 0.39003E-03 0.61509E-03 0.91169E-03 0.12399E-02 0.16059E-02 0.20677E-02
 0.26942E-02 0.34965E-02 0.43683E-02 0.50968E-02 0.54638E-02 0.53778E-02 0.49273E-02 0.43172E-02 0.37548E-02 0.33768E-02
 0.32455E-02 0.33768E-02 0.37548E-02 0.43172E-02 0.49273E-02 0.53778E-02 0.54638E-02 0.50968E-02 0.43683E-02 0.34965E-02
 0.26942E-02 0.20677E-02 0.16059E-02 0.12399E-02 0.91170E-03 0.61509E-03 0.39003E-03 0.27373E-03 0.24994E-03 0.25240E-03
 0.22294E-03 0.15668E-03 0.85354E-04 0.34137E-04 0.12071E-04 0.29268E-04 0.90391E-04 0.16647E-03 0.15366E-03 0.12720E-03
 0.69749E-04 0.22952E-04 0.12219E-04 0.45672E-04 0.12812E-03 0.24795E-03 0.35813E-03 0.40467E-03 0.38680E-03 0.37045E-03
 0.43128E-03 0.59836E-03 0.86223E-03 0.12198E-02 0.16914E-02 0.23000E-02 0.30429E-02 0.38675E-02 0.46496E-02 0.52070E-02
 0.53778E-02 0.51264E-02 0.45785E-02 0.39473E-02 0.34179E-02 0.30859E-02 0.29752E-02 0.30859E-02 0.34179E-02 0.39473E-02
 0.45785E-02 0.51264E-02 0.53778E-02 0.52070E-02 0.46496E-02 0.38675E-02 0.30429E-02 0.23000E-02 0.16914E-02 0.12198E-02
 0.86223E-03 0.59836E-03 0.43128E-03 0.37045E-03 0.38680E-03 0.40467E-03 0.35813E-03 0.24795E-03 0.12812E-03 0.45672E-04
 0.12219E-04 0.22952E-04 0.69750E-04 0.12720E-03 0.12621E-03 0.10511E-03 0.59409E-04 0.21868E-04 0.13554E-04 0.48970E-04
 0.14520E-03 0.29566E-03 0.44357E-03 0.51745E-03 0.50471E-03 0.47025E-03 0.49551E-03 0.62046E-03 0.85458E-03 0.12165E-02
 0.17319E-02 0.23956E-02 0.31532E-02 0.39113E-02 0.45464E-02 0.49192E-02 0.49273E-02 0.45785E-02 0.40096E-02 0.34146E-02
 0.29448E-02 0.26628E-02 0.25712E-02 0.26628E-02 0.29448E-02 0.34146E-02 0.40096E-02 0.45785E-02 0.49273E-02 0.49192E-02
 0.45464E-02 0.39113E-02 0.31532E-02 0.23956E-02 0.17319E-02 0.12165E-02 0.85458E-03 0.62046E-03 0.49552E-03 0.47025E-03
 0.50471E-03 0.51745E-03 0.44357E-03 0.29566E-03 0.14520E-03 0.48971E-04 0.13554E-04 0.21868E-04 0.59409E-04 0.10511E-03
 0.12858E-03 0.10702E-03 0.61116E-04 0.24194E-04 0.13745E-04 0.40143E-04 0.12380E-03 0.27005E-03 0.43215E-03 0.53505E-03
 0.54940E-03 0.52381E-03 0.53685E-03 0.63942E-03 0.85483E-03 0.12067E-02 0.17122E-02 0.23472E-02 0.30371E-02 0.36800E-02
 0.41681E-02 0.44005E-02 0.43172E-02 0.39473E-02 0.34146E-02 0.28780E-02 0.24561E-02 0.21997E-02 0.21152E-02 0.21997E-02
 0.24561E-02 0.28780E-02 0.34146E-02 0.39473E-02 0.43172E-02 0.44005E-02 0.41681E-02 0.36800E-02 0.30371E-02 0.23472E-02
 0.17122E-02 0.12067E-02 0.85483E-03 0.63942E-03 0.53685E-03 0.52381E-03 0.54940E-03 0.53505E-03 0.43215E-03 0.27005E-03
 0.12380E-03 0.40144E-04 0.13745E-04 0.24194E-04 0.61116E-04 0.10702E-03 0.14933E-03 0.12389E-03 0.69946E-04 0.26667E-04
 0.10504E-04 0.22833E-04 0.78871E-04 0.19502E-03 0.34691E-03 0.47128E-03 0.52574E-03 0.53263E-03 0.55582E-03 0.65136E-03
 0.85258E-03 0.11819E-02 0.16456E-02 0.22109E-02 0.28038E-02 0.33322E-02 0.37086E-02 0.38612E-02 0.37548E-02 0.34179E-02
 0.29448E-02 0.24561E-02 0.20516E-02 0.17908E-02 0.17012E-02 0.17908E-02 0.20516E-02 0.24561E-02 0.29448E-02 0.34179E-02
 0.37548E-02 0.38612E-02 0.37086E-02 0.33322E-02 0.28038E-02 0.22109E-02 0.16456E-02 0.11819E-02 0.85258E-03 0.65136E-03
 0.55582E-03 0.53263E-03 0.52574E-03 0.47128E-03 0.34691E-03 0.19502E-03 0.78871E-04 0.22833E-04 0.10504E-04 0.26667E-04
 0.69946E-04 0.12389E-03 0.17236E-03 0.14275E-03 0.79374E-04 0.27397E-04 0.49386E-05 0.63617E-05 0.38608E-04 0.12299E-03
 0.25564E-03 0.39103E-03 0.48197E-03 0.52718E-03 0.57070E-03 0.66603E-03 0.85262E-03 0.11542E-02 0.15731E-02 0.20761E-02
 0.25940E-02 0.30440E-02 0.33538E-02 0.34722E-02 0.33768E-02 0.30859E-02 0.26628E-02 0.21997E-02 0.17908E-02 0.15124E-02
 0.14139E-02 0.15124E-02 0.17908E-02 0.21997E-02 0.26628E-02 0.30859E-02 0.33768E-02 0.34722E-02 0.33538E-02 0.30440E-02
 0.25940E-02 0.20761E-02 0.15731E-02 0.11542E-02 0.85262E-03 0.66603E-03 0.57070E-03 0.52718E-03 0.48197E-03 0.39103E-03
 0.25564E-03 0.12300E-03 0.38608E-04 0.63618E-05 0.49386E-05 0.27397E-04 0.79374E-04 0.14275E-03 0.18235E-03 0.15098E-03
 0.83397E-04 0.27295E-04 0.20701E-05 -.30279E-06 0.23156E-04 0.94536E-04 0.21797E-03 0.35639E-03 0.46220E-03 0.52469E-03
 0.57846E-03 0.67432E-03 0.85375E-03 0.11421E-02 0.15420E-02 0.20210E-02 0.25119E-02 0.29348E-02 0.32227E-02 0.33323E-02
 0.32455E-02 0.29752E-02 0.25712E-02 0.21152E-02 0.17012E-02 0.14139E-02 0.13113E-02 0.14139E-02 0.17012E-02 0.21152E-02
 0.25712E-02 0.29752E-02 0.32455E-02 0.33323E-02 0.32227E-02 0.29348E-02 0.25119E-02 0.20210E-02 0.15420E-02 0.11421E-02
 0.85375E-03 0.67432E-03 0.57846E-03 0.52469E-03 0.46220E-03 0.35639E-03 0.21797E-03 0.94536E-04 0.23156E-04 -.30273E-06
 0.20701E-05 0.27295E-04 0.83397E-04 0.15098E-03 0.17236E-03 0.14275E-03 0.79374E-04 0.27397E-04 0.49386E-05 0.63618E-05
 0.38608E-04 0.12299E-03 0.25564E-03 0.39103E-03 0.48197E-03 0.52718E-03 0.57070E-03 0.66603E-03 0.85262E-03 0.11542E-02
 0.15731E-02 0.20761E-02 0.25940E-02 0.30440E-02 0.33538E-02 0.34722E-02 0.33768E-02 0.30859E-02 0.26628E-02 0.21997E-02
 0.17908E-02 0.15124E-02 0.14139E-02 0.15124E-02 0.17908E-02 0.21997E-02 0.26628E-02 0.30859E-02 0.33768E-02 0.34722E-02
 0.33538E-02 0.30440E-02 0.25940E-02 0.20761E-02 0.15731E-02 0.11542E-02 0.85262E-03 0.66603E-03 0.57070E-03 0.52718E-03
 0.48197E-03 0.39103E-03 0.25564E-03 0.12300E-03 0.38608E-04 0.63618E-05 0.49386E-05 0.27397E-04 0.79374E-04 0.14275E-03
 0.14933E-03 0.12389E-03 0.69946E-04 0.26667E-04 0.10504E-04 0.22833E-04 0.78871E-04 0.19502E-03 0.34691E-03 0.47128E-03
 0.52574E-03 0.53263E-03 0.55582E-03 0.65136E-03 0.85258E-03 0.11819E-02 0.16456E-02 0.22109E-02 0.28038E-02 0.33322E-02
 0.37086E-02 0.38612E-02 0.37548E-02 0.34179E-02 0.29447E-02 0.24561E-02 0.20516E-02 0.17908E-02 0.17012E-02 0.17908E-02
 0.20516E-02 0.24561E-02 0.29447E-02 0.34179E-02 0.37548E-02 0.38612E-02 0.37086E-02 0.33322E-02 0.28038E-02 0.22109E-02
 0.16456E-02 0.11819E-02 0.85258E-03 0.65136E-03 0.55582E-03 0.53263E-03 0.52574E-03 0.47128E-03 0.34691E-03 0.19502E-03
 0.78871E-04 0.22833E-04 0.10504E-04 0.26667E-04 0.69946E-04 0.12389E-03 0.12858E-03 0.10702E-03 0.61116E-04 0.24194E-04
 0.13745E-04 0.40143E-04 0.12380E-03 0.27005E-03 0.43215E-03 0.53505E-03 0.54940E-03 0.52381E-03 0.53685E-03 0.63942E-03
 0.85483E-03 0.12067E-02 0.17122E-02 0.23472E-02 0.30371E-02 0.36800E-02 0.41681E-02 0.44005E-02 0.43172E-02 0.39473E-02
 0.34146E-02 0.28780E-02 0.24561E-02 0.21997E-02 0.21152E-02 0.21997E-02 0.24561E-02 0.28780E-02 0.34146E-02 0.39473E-02
 0.43172E-02 0.44005E-02 0.41681E-02 0.36800E-02 0.30371E-02 0.23472E-02 0.17122E-02 0.12067E-02 0.85483E-03 0.63942E-03
 0.53685E-03 0.52381E-03 0.54940E-03 0.53505E-03 0.43215E-03 0.27005E-03 0.12380E-03 0.40144E-04 0.13745E-04 0.24194E-04
 0.61116E-04 0.10702E-03 0.12621E-03 0.10511E-03 0.59409E-04 0.21868E-04 0.13554E-04 0.48970E-04 0.14520E-03 0.29566E-03
 0.44357E-03 0.51745E-03 0.50471E-03 0.47025E-03 0.49552E-03 0.62046E-03 0.85458E-03 0.12165E-02 0.17319E-02 0.23956E-02
 0.31532E-02 0.39113E-02 0.45464E-02 0.49192E-02 0.49273E-02 0.45785E-02 0.40096E-02 0.34146E-02 0.29447E-02 0.26628E-02
 0.25712E-02 0.26628E-02 0.29447E-02 0.34146E-02 0.40096E-02 0.45785E-02 0.49273E-02 0.49192E-02 0.45464E-02 0.39113E-02
 0.31532E-02 0.23956E-02 0.17319E-02 0.12165E-02 0.85458E-03 0.62046E-03 0.49552E-03 0.47025E-03 0.50471E-03 0.51745E-03
 0.44357E-03 0.29566E-03 0.14520E-03 0.48971E-04 0.13554E-04 0.21868E-04 0.59409E-04 0.10511E-03 0.15366E-03 0.12720E-03
 0.69749E-04 0.22952E-04 0.12219E-04 0.45672E-04 0.12812E-03 0.24795E-03 0.35813E-03 0.40467E-03 0.38680E-03 0.37045E-03
 0.43128E-03 0.59836E-03 0.86223E-03 0.12198E-02 0.16914E-02 0.23000E-02 0.30429E-02 0.38675E-02 0.46496E-02 0.52070E-02
 0.53778E-02 0.51264E-02 0.45785E-02 0.39473E-02 0.34179E-02 0.30859E-02 0.29752E-02 0.30859E-02 0.34179E-02 0.39473E-02
 0.45785E-02 0.51264E-02 0.53778E-02 0.52070E-02 0.46496E-02 0.38675E-02 0.30429E-02 0.23000E-02 0.16914E-02 0.12198E-02
 0.86223E-03 0.59836E-03 0.43128E-03 0.37045E-03 0.38680E-03 0.40467E-03 0.35813E-03 0.24795E-03 0.12812E-03 0.45672E-04
 0.12219E-04 0.22952E-04 0.69750E-04 0.12720E-03 0.20170E-03 0.16647E-03 0.90391E-04 0.29268E-04 0.12071E-04 0.34137E-04
 0.85354E-04 0.15668E-03 0.22294E-03 0.25240E-03 0.24994E-03 0.27373E-03 0.39003E-03 0.61509E-03 0.91170E-03 0.12399E-02
 0.16059E-02 0.20677E-02 0.26942E-02 0.34965E-02 0.43683E-02 0.50968E-02 0.54638E-02 0.53778E-02 0.49273E-02 0.43172E-02
 0.37548E-02 0.33768E-02 0.32455E-02 0.33768E-02 0.37548E-02 0.43172E-02 0.49273E-02 0.53778E-02 0.54638E-02 0.50968E-02
 0.43683E-02 0.34965E-02 0.26942E-02 0.20677E-02 0.16059E-02 0.12399E-02 0.91170E-03 0.61509E-03 0.39003E-03 0.27373E-03
 0.24994E-03 0.25240E-03 0.22294E-03 0.15668E-03 0.85354E-04 0.34137E-04 0.12071E-04 0.29268E-04 0.90391E-04 0.16647E-03
 0.22745E-03 0.18970E-03 0.10790E-03 0.40993E-04 0.17018E-04 0.24270E-04 0.46252E-04 0.78815E-04 0.11379E-03 0.13619E-03
 0.15633E-03 0.22824E-03 0.40926E-03 0.69604E-03 0.10143E-02 0.12840E-02 0.15015E-02 0.17617E-02 0.21994E-02 0.28842E-02
 0.37416E-02 0.45604E-02 0.50968E-02 0.52070E-02 0.49192E-02 0.44005E-02 0.38612E-02 0.34722E-02 0.33323E-02 0.34722E-02
 0.38612E-02 0.44005E-02 0.49192E-02 0.52070E-02 0.50968E-02 0.45604E-02 0.37416E-02 0.28842E-02 0.21994E-02 0.17617E-02
 0.15015E-02 0.12840E-02 0.10143E-02 0.69604E-03 0.40926E-03 0.22824E-03 0.15633E-03 0.13619E-03 0.11379E-03 0.78815E-04
 0.46252E-04 0.24270E-04 0.17018E-04 0.40993E-04 0.10790E-03 0.18970E-03 0.18560E-03 0.16014E-03 0.10436E-03 0.56753E-04
 0.35220E-04 0.31864E-04 0.37110E-04 0.50721E-04 0.69173E-04 0.85317E-04 0.11680E-03 0.22042E-03 0.44831E-03 0.77812E-03
 0.11022E-02 0.13094E-02 0.13900E-02 0.14633E-02 0.17007E-02 0.22072E-02 0.29450E-02 0.37416E-02 0.43683E-02 0.46496E-02
 0.45464E-02 0.41681E-02 0.37086E-02 0.33538E-02 0.32227E-02 0.33538E-02 0.37086E-02 0.41681E-02 0.45464E-02 0.46496E-02
 0.43683E-02 0.37416E-02 0.29450E-02 0.22072E-02 0.17007E-02 0.14633E-02 0.13900E-02 0.13094E-02 0.11022E-02 0.77812E-03
 0.44831E-03 0.22042E-03 0.11680E-03 0.85317E-04 0.69173E-04 0.50721E-04 0.37111E-04 0.31864E-04 0.35220E-04 0.56753E-04
 0.10436E-03 0.16014E-03 0.89591E-04 0.84871E-04 0.75938E-04 0.71449E-04 0.72621E-04 0.74022E-04 0.73394E-04 0.73654E-04
 0.74811E-04 0.76417E-04 0.99845E-04 0.19907E-03 0.42214E-03 0.74503E-03 0.10561E-02 0.12337E-02 0.12548E-02 0.12282E-02
 0.13209E-02 0.16478E-02 0.22072E-02 0.28842E-02 0.34965E-02 0.38675E-02 0.39113E-02 0.36800E-02 0.33322E-02 0.30440E-02
 0.29348E-02 0.30440E-02 0.33322E-02 0.36800E-02 0.39112E-02 0.38675E-02 0.34965E-02 0.28842E-02 0.22072E-02 0.16478E-02
 0.13209E-02 0.12282E-02 0.12548E-02 0.12337E-02 0.10561E-02 0.74503E-03 0.42214E-03 0.19907E-03 0.99845E-04 0.76417E-04
 0.74811E-04 0.73654E-04 0.73394E-04 0.74023E-04 0.72621E-04 0.71449E-04 0.75938E-04 0.84871E-04 0.14513E-04 0.20031E-04
 0.39902E-04 0.76636E-04 0.12014E-03 0.14976E-03 0.15147E-03 0.13001E-03 0.10156E-03 0.80740E-04 0.85024E-04 0.14801E-03
 0.30618E-03 0.55411E-03 0.81909E-03 0.10034E-02 0.10663E-02 0.10656E-02 0.11178E-02 0.13209E-02 0.17007E-02 0.21994E-02
 0.26942E-02 0.30429E-02 0.31532E-02 0.30371E-02 0.28038E-02 0.25940E-02 0.25119E-02 0.25940E-02 0.28038E-02 0.30371E-02
 0.31532E-02 0.30429E-02 0.26942E-02 0.21994E-02 0.17007E-02 0.13209E-02 0.11178E-02 0.10656E-02 0.10663E-02 0.10034E-02
 0.81909E-03 0.55411E-03 0.30618E-03 0.14801E-03 0.85024E-04 0.80740E-04 0.10156E-03 0.13001E-03 0.15147E-03 0.14976E-03
 0.12014E-03 0.76636E-04 0.39902E-04 0.20031E-04 0.11304E-04 0.76429E-05 0.16417E-04 0.67419E-04 0.15191E-03 0.22055E-03
 0.23165E-03 0.18993E-03 0.13312E-03 0.92389E-04 0.77623E-04 0.95501E-04 0.16323E-03 0.29375E-03 0.47273E-03 0.66021E-03
 0.81931E-03 0.94445E-03 0.10656E-02 0.12282E-02 0.14633E-02 0.17617E-02 0.20677E-02 0.23000E-02 0.23956E-02 0.23472E-02
 0.22109E-02 0.20761E-02 0.20210E-02 0.20761E-02 0.22109E-02 0.23472E-02 0.23956E-02 0.23000E-02 0.20677E-02 0.17617E-02
 0.14633E-02 0.12282E-02 0.10656E-02 0.94445E-03 0.81931E-03 0.66021E-03 0.47273E-03 0.29375E-03 0.16322E-03 0.95501E-04
 0.77623E-04 0.92389E-04 0.13312E-03 0.18993E-03 0.23165E-03 0.22055E-03 0.15191E-03 0.67419E-04 0.16417E-04 0.76429E-05
 0.41938E-04 0.24402E-04 0.76133E-05 0.48472E-04 0.14379E-03 0.22832E-03 0.24834E-03 0.21058E-03 0.15602E-03 0.11129E-03
 0.79394E-04 0.60075E-04 0.60509E-04 0.92579E-04 0.17406E-03 0.32632E-03 0.55304E-03 0.81931E-03 0.10663E-02 0.12548E-02
 0.13900E-02 0.15015E-02 0.16059E-02 0.16914E-02 0.17319E-02 0.17122E-02 0.16456E-02 0.15731E-02 0.15420E-02 0.15731E-02
 0.16456E-02 0.17122E-02 0.17319E-02 0.16914E-02 0.16059E-02 0.15015E-02 0.13900E-02 0.12548E-02 0.10663E-02 0.81931E-03
 0.55304E-03 0.32632E-03 0.17406E-03 0.92578E-04 0.60508E-04 0.60075E-04 0.79394E-04 0.11129E-03 0.15602E-03 0.21058E-03
 0.24834E-03 0.22832E-03 0.14379E-03 0.48472E-04 0.76133E-05 0.24402E-04 0.39983E-04 0.22830E-04 0.32326E-05 0.29705E-04
 0.96829E-04 0.15360E-03 0.17048E-03 0.16343E-03 0.15193E-03 0.12897E-03 0.86100E-04 0.39577E-04 0.10458E-04 0.69167E-06
 0.17502E-04 0.10756E-03 0.32632E-03 0.66021E-03 0.10034E-02 0.12337E-02 0.13094E-02 0.12840E-02 0.12399E-02 0.12198E-02
 0.12165E-02 0.12067E-02 0.11819E-02 0.11542E-02 0.11421E-02 0.11542E-02 0.11819E-02 0.12067E-02 0.12165E-02 0.12198E-02
 0.12399E-02 0.12840E-02 0.13094E-02 0.12337E-02 0.10034E-02 0.66021E-03 0.32632E-03 0.10756E-03 0.17502E-04 0.69155E-06
 0.10458E-04 0.39577E-04 0.86100E-04 0.12897E-03 0.15193E-03 0.16343E-03 0.17048E-03 0.15360E-03 0.96829E-04 0.29705E-04
 0.32326E-05 0.22830E-04 0.16459E-04 0.90227E-05 0.23482E-05 0.16489E-04 0.40716E-04 0.50691E-04 0.51510E-04 0.72934E-04
 0.11788E-03 0.14512E-03 0.12002E-03 0.60742E-04 0.11322E-04 -.13579E-04 -.21382E-04 0.17502E-04 0.17406E-03 0.47273E-03
 0.81909E-03 0.10561E-02 0.11022E-02 0.10143E-02 0.91170E-03 0.86223E-03 0.85458E-03 0.85483E-03 0.85258E-03 0.85262E-03
 0.85375E-03 0.85262E-03 0.85258E-03 0.85483E-03 0.85458E-03 0.86223E-03 0.91170E-03 0.10143E-02 0.11022E-02 0.10561E-02
 0.81909E-03 0.47273E-03 0.17406E-03 0.17502E-04 -.21382E-04 -.13579E-04 0.11322E-04 0.60741E-04 0.12002E-03 0.14512E-03
 0.11787E-03 0.72934E-04 0.51510E-04 0.50691E-04 0.40716E-04 0.16489E-04 0.23482E-05 0.90227E-05 0.45702E-04 0.34584E-04
 0.14977E-04 0.77121E-05 0.97456E-05 0.13364E-05 -.13878E-04 0.30062E-05 0.78264E-04 0.17513E-03 0.21847E-03 0.17518E-03
 0.87368E-04 0.16811E-04 -.13579E-04 0.69167E-06 0.92579E-04 0.29375E-03 0.55411E-03 0.74503E-03 0.77812E-03 0.69604E-03
 0.61509E-03 0.59836E-03 0.62046E-03 0.63942E-03 0.65136E-03 0.66603E-03 0.67432E-03 0.66603E-03 0.65136E-03 0.63942E-03