Screening bandgap                       
   1.00000000000000     
     6.350000    0.000000    0.000000
     0.000000    6.350000    0.000000
     0.000000    0.000000    6.350000
   C    H 
     1     4
Direct
  0.500000  0.500000  0.500000
  0.400987  0.400987  0.400987
  0.599013  0.599013  0.400987
  0.400987  0.599013  0.599013
  0.599013  0.400987  0.599013
 
   56   56   56
 -.25676E-06 -.21901E-06 -.10615E-06 0.97375E-07 0.45695E-06 0.11055E-05 0.22260E-05 0.40110E-05 0.66332E-05 0.10247E-04
 0.15009E-04 0.21086E-04 0.28629E-04 0.37709E-04 0.48287E-04 0.60207E-04 0.73253E-04 0.87188E-04 0.10177E-03 0.11671E-03
 0.13166E-03 0.14619E-03 0.15986E-03 0.17226E-03 0.18304E-03 0.19191E-03 0.19855E-03 0.20269E-03 0.20410E-03 0.20270E-03
 0.19856E-03 0.19192E-03 0.18306E-03 0.17227E-03 0.15987E-03 0.14621E-03 0.13168E-03 0.11673E-03 0.10179E-03 0.87207E-04
 0.73271E-04 0.60223E-04 0.48301E-04 0.37722E-04 0.28639E-04 0.21095E-04 0.15015E-04 0.10252E-04 0.66370E-05 0.40136E-05
 0.22277E-05 0.11065E-05 0.45749E-06 0.97608E-07 -.10608E-06 -.21900E-06 0.31302E-04 0.31075E-04 0.30344E-04 0.29003E-04
 0.26959E-04 0.24206E-04 0.20854E-04 0.17110E-04 0.13230E-04 0.94821E-05 0.61243E-05 0.33876E-05 0.14409E-05 0.35571E-06
 0.99320E-07 0.57007E-06 0.16604E-05 0.33078E-05 0.55038E-05 0.82566E-05 0.11538E-04 0.15248E-04 0.19220E-04 0.23247E-04
 0.27104E-04 0.30545E-04 0.33300E-04 0.35098E-04 0.35725E-04 0.35100E-04 0.33303E-04 0.30549E-04 0.27108E-04 0.23252E-04
 0.19226E-04 0.15253E-04 0.11543E-04 0.82613E-05 0.55078E-05 0.33110E-05 0.16626E-05 0.57127E-06 0.99471E-07 0.35479E-06
 0.14389E-05 0.33847E-05 0.61206E-05 0.94779E-05 0.13226E-04 0.17106E-04 0.20849E-04 0.24201E-04 0.26956E-04 0.29000E-04
 0.30342E-04 0.31073E-04 0.50506E-03 0.50640E-03 0.50985E-03 0.51400E-03 0.51701E-03 0.51729E-03 0.51382E-03 0.50634E-03
 0.49524E-03 0.48142E-03 0.46624E-03 0.45139E-03 0.43869E-03 0.42965E-03 0.42504E-03 0.42451E-03 0.42668E-03 0.42952E-03
 0.43105E-03 0.42989E-03 0.42562E-03 0.41857E-03 0.40945E-03 0.39906E-03 0.38821E-03 0.37785E-03 0.36914E-03 0.36328E-03
 0.36121E-03 0.36328E-03 0.36914E-03 0.37784E-03 0.38819E-03 0.39904E-03 0.40943E-03 0.41855E-03 0.42560E-03 0.42986E-03
 0.43102E-03 0.42949E-03 0.42665E-03 0.42448E-03 0.42501E-03 0.42962E-03 0.43866E-03 0.45136E-03 0.46621E-03 0.48140E-03
 0.49522E-03 0.50632E-03 0.51380E-03 0.51727E-03 0.51700E-03 0.51399E-03 0.50985E-03 0.50640E-03 0.25723E-02 0.25819E-02
 0.26087E-02 0.26477E-02 0.26922E-02 0.27365E-02 0.27764E-02 0.28101E-02 0.28377E-02 0.28607E-02 0.28825E-02 0.29086E-02
 0.29457E-02 0.30000E-02 0.30749E-02 0.31688E-02 0.32751E-02 0.33836E-02 0.34840E-02 0.35686E-02 0.36339E-02 0.36801E-02
 0.37090E-02 0.37226E-02 0.37236E-02 0.37153E-02 0.37027E-02 0.36919E-02 0.36876E-02 0.36919E-02 0.37027E-02 0.37152E-02
 0.37235E-02 0.37226E-02 0.37089E-02 0.36801E-02 0.36339E-02 0.35685E-02 0.34839E-02 0.33835E-02 0.32750E-02 0.31687E-02
 0.30748E-02 0.30000E-02 0.29457E-02 0.29086E-02 0.28825E-02 0.28606E-02 0.28376E-02 0.28101E-02 0.27764E-02 0.27364E-02
 0.26922E-02 0.26476E-02 0.26087E-02 0.25819E-02 0.81457E-02 0.81741E-02 0.82556E-02 0.83805E-02 0.85368E-02 0.87140E-02
 0.89049E-02 0.91056E-02 0.93136E-02 0.95282E-02 0.97515E-02 0.99905E-02 0.10257E-01 0.10562E-01 0.10915E-01 0.11310E-01
 0.11733E-01 0.12159E-01 0.12564E-01 0.12929E-01 0.13247E-01 0.13516E-01 0.13737E-01 0.13910E-01 0.14034E-01 0.14114E-01
 0.14156E-01 0.14173E-01 0.14178E-01 0.14173E-01 0.14156E-01 0.14114E-01 0.14034E-01 0.13910E-01 0.13737E-01 0.13516E-01
 0.13247E-01 0.12929E-01 0.12564E-01 0.12159E-01 0.11733E-01 0.11310E-01 0.10914E-01 0.10562E-01 0.10256E-01 0.99904E-02
 0.97514E-02 0.95281E-02 0.93136E-02 0.91055E-02 0.89049E-02 0.87139E-02 0.85368E-02 0.83805E-02 0.82556E-02 0.81741E-02
 0.19774E-01 0.19836E-01 0.20016E-01 0.20303E-01 0.20683E-01 0.21146E-01 0.21684E-01 0.22293E-01 0.22963E-01 0.23683E-01
 0.24443E-01 0.25241E-01 0.26085E-01 0.26990E-01 0.27968E-01 0.29011E-01 0.30096E-01 0.31182E-01 0.32231E-01 0.33211E-01
 0.34110E-01 0.34921E-01 0.35637E-01 0.36244E-01 0.36729E-01 0.37084E-01 0.37315E-01 0.37439E-01 0.37478E-01 0.37439E-01
 0.37314E-01 0.37084E-01 0.36729E-01 0.36244E-01 0.35637E-01 0.34921E-01 0.34110E-01 0.33211E-01 0.32230E-01 0.31182E-01
 0.30096E-01 0.29011E-01 0.27968E-01 0.26990E-01 0.26084E-01 0.25240E-01 0.24443E-01 0.23683E-01 0.22963E-01 0.22293E-01
 0.21684E-01 0.21145E-01 0.20683E-01 0.20303E-01 0.20016E-01 0.19836E-01 0.40406E-01 0.40525E-01 0.40876E-01 0.41450E-01
 0.42235E-01 0.43226E-01 0.44422E-01 0.45814E-01 0.47381E-01 0.49090E-01 0.50903E-01 0.52795E-01 0.54761E-01 0.56812E-01
 0.58961E-01 0.61200E-01 0.63496E-01 0.65795E-01 0.68040E-01 0.70186E-01 0.72203E-01 0.74071E-01 0.75759E-01 0.77225E-01
 0.78425E-01 0.79330E-01 0.79943E-01 0.80289E-01 0.80400E-01 0.80289E-01 0.79943E-01 0.79330E-01 0.78425E-01 0.77225E-01
 0.75759E-01 0.74071E-01 0.72203E-01 0.70185E-01 0.68040E-01 0.65795E-01 0.63496E-01 0.61200E-01 0.58961E-01 0.56812E-01
 0.54761E-01 0.52794E-01 0.50902E-01 0.49089E-01 0.47381E-01 0.45814E-01 0.44422E-01 0.43226E-01 0.42235E-01 0.41450E-01
 0.40876E-01 0.40525E-01 0.73167E-01 0.73385E-01 0.74035E-01 0.75105E-01 0.76583E-01 0.78469E-01 0.80759E-01 0.83440E-01
 0.86473E-01 0.89795E-01 0.93335E-01 0.97035E-01 0.10087     0.10484     0.10897     0.11324     0.11761     0.12199    
 0.12631     0.13048     0.13444     0.13811     0.14143     0.14431     0.14666     0.14845     0.14967     0.15036    
 0.15059     0.15036     0.14967     0.14845     0.14666     0.14431     0.14143     0.13811     0.13444     0.13048    
 0.12631     0.12199     0.11761     0.11324     0.10897     0.10484     0.10087     0.97035E-01 0.93335E-01 0.89795E-01
 0.86473E-01 0.83439E-01 0.80759E-01 0.78469E-01 0.76583E-01 0.75104E-01 0.74035E-01 0.73385E-01 0.12125     0.12164    
 0.12279     0.12467     0.12725     0.13053     0.13448     0.13907     0.14426     0.14995     0.15604     0.16245    
 0.16912     0.17607     0.18329     0.19077     0.19845     0.20618     0.21383     0.22123     0.22824     0.23471    
 0.24051     0.24550     0.24955     0.25262     0.25473     0.25593     0.25633     0.25593     0.25473     0.25262    
 0.24955     0.24550     0.24051     0.23471     0.22824     0.22123     0.21383     0.20618     0.19845     0.19077    
 0.18329     0.17607     0.16912     0.16245     0.15604     0.14995     0.14426     0.13907     0.13448     0.13053    
 0.12725     0.12467     0.12279     0.12164     0.18793     0.18857     0.19046     0.19355     0.19776     0.20303    
 0.20931     0.21658     0.22475     0.23373     0.24340     0.25365     0.26443     0.27570     0.28747     0.29969    
 0.31224     0.32491     0.33744     0.34956     0.36100     0.37151     0.38087     0.38887     0.39538     0.40034    
 0.40377     0.40576     0.40641     0.40576     0.40377     0.40034     0.39538     0.38887     0.38087     0.37151    
 0.36100     0.34956     0.33744     0.32491     0.31224     0.29969     0.28747     0.27570     0.26443     0.25366    
 0.24340     0.23373     0.22475     0.21658     0.20931     0.20303     0.19776     0.19355     0.19046     0.18857    
 0.27641     0.27739     0.28030     0.28502     0.29141     0.29934     0.30874     0.31956     0.33175     0.34520    
 0.35979     0.37537     0.39185     0.40915     0.42723     0.44597     0.46519     0.48456     0.50371     0.52221    
 0.53964     0.55565     0.56991     0.58217     0.59223     0.60001     0.60549     0.60872     0.60979     0.60872    
 0.60549     0.60001     0.59223     0.58217     0.56991     0.55565     0.53964     0.52221     0.50371     0.48456    
 0.46519     0.44597     0.42723     0.40915     0.39185     0.37537     0.35979     0.34520     0.33175     0.31956    
 0.30874     0.29934     0.29141     0.28502     0.28030     0.27739     0.38949     0.39091     0.39510     0.40186    
 0.41098     0.42229     0.43567     0.45112     0.46859     0.48799     0.50918     0.53195     0.55608     0.58142    
 0.60782     0.63508     0.66292     0.69091     0.71852     0.74518     0.77035     0.79354     0.81436     0.83245    
 0.84754     0.85942     0.86795     0.87308     0.87479     0.87308     0.86795     0.85942     0.84754     0.83245    
 0.81436     0.79354     0.77035     0.74518     0.71852     0.69091     0.66292     0.63509     0.60782     0.58142    
 0.55608     0.53195     0.50918     0.48799     0.46859     0.45112     0.43567     0.42229     0.41098     0.40186    
 0.39510     0.39091     0.52904     0.53098     0.53669     0.54593     0.55838     0.57383     0.59219     0.61348    
 0.63771     0.66480     0.69453     0.72657     0.76056     0.79618     0.83314     0.87114     0.90977     0.94848    
 0.98662      1.0235      1.0584      1.0907      1.1200      1.1458      1.1675      1.1849      1.1976      1.2053    
  1.2079      1.2053      1.1976      1.1849      1.1675      1.1458      1.1200      1.0907      1.0584      1.0235    
 0.98662     0.94848     0.90977     0.87114     0.83314     0.79618     0.76056     0.72657     0.69453     0.66480    
 0.63771     0.61348     0.59219     0.57383     0.55838     0.54593     0.53669     0.53098     0.69554     0.69810    
 0.70564     0.71783     0.73430     0.75480     0.77926     0.80774     0.84031     0.87687     0.91712     0.96056    
  1.0067      1.0549      1.1049      1.1561      1.2080      1.2600      1.3112      1.3607      1.4077      1.4514    
  1.4912      1.5264      1.5564      1.5805      1.5981      1.6089      1.6125      1.6089      1.5981      1.5805    
  1.5564      1.5264      1.4912      1.4514      1.4077      1.3607      1.3112      1.2600      1.2080      1.1561    
  1.1049      1.0549      1.0067     0.96056     0.91712     0.87687     0.84031     0.80774     0.77926     0.75480    
 0.73430     0.71783     0.70564     0.69810     0.88814     0.89143     0.90115     0.91689     0.93819     0.96476    
 0.99653      1.0336      1.0761      1.1238      1.1764      1.2332      1.2936      1.3568      1.4223      1.4895    
  1.5577      1.6258      1.6929      1.7579      1.8196      1.8771      1.9294      1.9758      2.0152      2.0467    
  2.0698      2.0839      2.0886      2.0839      2.0698      2.0467      2.0152      1.9758      1.9294      1.8771    
  1.8196      1.7579      1.6929      1.6258      1.5577      1.4895      1.4223      1.3568      1.2936      1.2332    
  1.1764      1.1238      1.0761      1.0336     0.99653     0.96476     0.93819     0.91689     0.90115     0.89143    
  1.1050      1.1091      1.1214      1.1413      1.1683      1.2021      1.2424      1.2894      1.3433      1.4037    
  1.4703      1.5423      1.6189      1.6995      1.7831      1.8691      1.9565      2.0438      2.1298      2.2130    
  2.2920      2.3655      2.4323      2.4913      2.5410      2.5807      2.6094      2.6268      2.6326      2.6268    
  2.6094      2.5807      2.5410      2.4913      2.4323      2.3655      2.2920      2.2130      2.1298      2.0438    
  1.9565      1.8691      1.7831      1.6995      1.6189      1.5423      1.4703      1.4037      1.3433      1.2894    
  1.2424      1.2021      1.1683      1.1413      1.1214      1.1091      1.3436      1.3487      1.3639      1.3885    
  1.4220      1.4639      1.5139      1.5722      1.6388      1.7134      1.7955      1.8844      1.9793      2.0794    
  2.1836      2.2911      2.4002      2.5093      2.6166      2.7202      2.8185      2.9099      2.9928      3.0657    
  3.1270      3.1755      3.2103      3.2312      3.2381      3.2312      3.2103      3.1755      3.1270      3.0657    
  2.9928      2.9099      2.8185      2.7202      2.6166      2.5093      2.4002      2.2911      2.1836      2.0794    
  1.9793      1.8844      1.7955      1.7134      1.6388      1.5722      1.5139      1.4639      1.4220      1.3885    
  1.3639      1.3487      1.6007      1.6069      1.6251      1.6548      1.6953      1.7461      1.8069      1.8776    
  1.9582      2.0484      2.1477      2.2553      2.3704      2.4920      2.6191      2.7500      2.8827      3.0151    
  3.1449      3.2701      3.3888      3.4994      3.5999      3.6882      3.7625      3.8209      3.8628      3.8878    
  3.8961      3.8878      3.8628      3.8209      3.7625      3.6882      3.5999      3.4994      3.3888      3.2701    
  3.1449      3.0151      2.8827      2.7500      2.6191      2.4920      2.3704      2.2553      2.1477      2.0484    
  1.9582      1.8776      1.8069      1.7461      1.6953      1.6548      1.6251      1.6069      1.8717      1.8789    
  1.9003      1.9353      1.9832      2.0434      2.1157      2.1998      2.2955      2.4027      2.5207      2.6487    
  2.7858      2.9310      3.0824      3.2381      3.3955      3.5517      3.7043      3.8512      3.9908      4.1211    
  4.2401      4.3453      4.4340      4.5041      4.5544      4.5845      4.5944      4.5845      4.5544      4.5041    
  4.4340      4.3453      4.2401      4.1211      3.9908      3.8512      3.7043      3.5517      3.3955      3.2381    
  3.0824      2.9310      2.7858      2.6487      2.5207      2.4027      2.2955      2.1998      2.1157      2.0434    
  1.9832      1.9353      1.9003      1.8789      2.1501      2.1584      2.1830      2.2234      2.2790      2.3490    
  2.4333      2.5314      2.6432      2.7682      2.9061      3.0558      3.2165      3.3864      3.5634      3.7447    
  3.9270      4.1071      4.2825      4.4511      4.6114      4.7617      4.8998      5.0226      5.1269      5.2099    
  5.2697      5.3056      5.3175      5.3056      5.2697      5.2099      5.1269      5.0226      4.8998      4.7617    
  4.6114      4.4511      4.2825      4.1071      3.9270      3.7447      3.5634      3.3864      3.2165      3.0558    
  2.9061      2.7682      2.6432      2.5314      2.4333      2.3490      2.2790      2.2234      2.1830      2.1584    
  2.4276      2.4370      2.4650      2.5112      2.5746      2.6549      2.7514      2.8638      2.9918      3.1351    
  3.2932      3.4652      3.6498      3.8451      4.0482      4.2554      4.4630      4.6674      4.8657      5.0563    
  5.2375      5.4078      5.5648      5.7051      5.8249      5.9208      5.9904      6.0324      6.0465      6.0324    
  5.9904      5.9208      5.8249      5.7051      5.5648      5.4078      5.2375      5.0563      4.8657      4.6674    
  4.4630      4.2554      4.0482      3.8451      3.6498      3.4652      3.2932      3.1351      2.9918      2.8638    
  2.7514      2.6549      2.5746      2.5112      2.4650      2.4370      2.6952      2.7059      2.7376      2.7897    
  2.8615      2.9521      3.0608      3.1872      3.3310      3.4919      3.6697      3.8635      4.0719      4.2922    
  4.5210      4.7542      4.9873      5.2165      5.4387      5.6519      5.8545      6.0448      6.2199      6.3765    
  6.5104      6.6181      6.6966      6.7442      6.7601      6.7442      6.6966      6.6181      6.5104      6.3765    
  6.2199      6.0448      5.8545      5.6519      5.4387      5.2165      4.9873      4.7542      4.5210      4.2922    
  4.0719      3.8635      3.6697      3.4919      3.3310      3.1872      3.0608      2.9521      2.8615      2.7897    
  2.7376      2.7059      2.9448      2.9567      2.9923      3.0507      3.1309      3.2316      3.3521      3.4916    
  3.6501      3.8275      4.0237      4.2380      4.4688      4.7129      4.9666      5.2250      5.4834      5.7376    
  5.9843      6.2209      6.4452      6.6548      6.8468      7.0177      7.1637      7.2811      7.3670      7.4193    
  7.4368      7.4193      7.3670      7.2811      7.1637      7.0177      6.8468      6.6548      6.4452      6.2209    
  5.9843      5.7376      5.4834      5.2250      4.9666      4.7129      4.4688      4.2380      4.0237      3.8275    
  3.6501      3.4916      3.3521      3.2316      3.1309      3.0507      2.9923      2.9567      3.1696      3.1828    
  3.2222      3.2866      3.3747      3.4849      3.6160      3.7673      3.9389      4.1312      4.3443      4.5775    
  4.8288      5.0950      5.3715      5.6532      5.9354      6.2137      6.4842      6.7436      6.9888      7.2167    
  7.4239      7.6072      7.7632      7.8886      7.9807      8.0370      8.0559      8.0370      7.9807      7.8886    
  7.7632      7.6072      7.4239      7.2167      6.9888      6.7436      6.4842      6.2137      5.9354      5.6532    
  5.3715      5.0950      4.8288      4.5775      4.3443      4.1312      3.9389      3.7673      3.6160      3.4849    
  3.3747      3.2866      3.2222      3.1828      3.3645      3.3789      3.4216      3.4913      3.5861      3.7043    
  3.8443      4.0057      4.1887      4.3941      4.6223      4.8726      5.1425      5.4282      5.7246      6.0266    
  6.3293      6.6285      6.9200      7.1998      7.4637      7.7077      7.9283      8.1223      8.2870      8.4198    
  8.5176      8.5778      8.5981      8.5778      8.5176      8.4198      8.2870      8.1223      7.9283      7.7077    
  7.4637      7.1998      6.9200      6.6285      6.3293      6.0266      5.7246      5.4282      5.1425      4.8726    
  4.6223      4.3941      4.1887      4.0057      3.8443      3.7043      3.5861      3.4913      3.4216      3.3789    
  3.5248      3.5401      3.5853      3.6589      3.7588      3.8829      4.0298      4.1992      4.3917      4.6085    
  4.8500      5.1152      5.4012      5.7032      6.0158      6.3337      6.6523      6.9675      7.2754      7.5712    
  7.8501      8.1073      8.3390      8.5424      8.7153      8.8553      8.9592      9.0235      9.0453      9.0235    
  8.9592      8.8553      8.7153      8.5424      8.3390      8.1073      7.8501      7.5712      7.2754      6.9675    
  6.6523      6.3337      6.0158      5.7032      5.4012      5.1152      4.8500      4.6085      4.3917      4.1992    
  4.0298      3.8829      3.7588      3.6589      3.5853      3.5401      3.6454      3.6612      3.7079      3.7840    
  3.8871      4.0151      4.1668      4.3419      4.5417      4.7675      5.0198      5.2971      5.5958      5.9103    
  6.2348      6.5637      6.8930      7.2188      7.5375      7.8443      8.1336      8.4004      8.6407      8.8518    
  9.0320      9.1788      9.2886      9.3570      9.3803      9.3570      9.2886      9.1788      9.0320      8.8518    
  8.6407      8.4004      8.1336      7.8443      7.5375      7.2188      6.8930      6.5637      6.2348      5.9103    
  5.5958      5.2971      5.0198      4.7675      4.5417      4.3419      4.1668      4.0151      3.8871      3.7840    
  3.7079      3.6612      3.7207      3.7368      3.7843      3.8616      3.9663      4.0965      4.2508      4.4295    
  4.6339      4.8656      5.1250      5.4103      5.7173      6.0398      6.3714      6.7068      7.0418      7.3734    
  7.6979      8.0106      8.3060      8.5785      8.8242      9.0406      9.2261      9.3780      9.4924      9.5640    
  9.5885      9.5640      9.4924      9.3780      9.2261      9.0406      8.8242      8.5785      8.3059      8.0106    
  7.6979      7.3734      7.0418      6.7068      6.3714      6.0398      5.7173      5.4103      5.1250      4.8656    
  4.6339      4.4295      4.2508      4.0965      3.9663      3.8616      3.7843      3.7368      3.7464      3.7625    
  3.8103      3.8879      3.9932      4.1239      4.2791      4.4589      4.6650      4.8987      5.1607      5.4488    
  5.7587      6.0839      6.4180      6.7554      7.0923      7.4256      7.7519      8.0664      8.3637      8.6381    
  8.8856      9.1040      9.2914      9.4453      9.5614      9.6342      9.6591      9.6342      9.5614      9.4453    
  9.2914      9.1040      8.8856      8.6381      8.3637      8.0664      7.7518      7.4256      7.0922      6.7554    
  6.4180      6.0839      5.7587      5.4488      5.1607      4.8987      4.6649      4.4589      4.2791      4.1239    
  3.9932      3.8879      3.8103      3.7625      3.7207      3.7368      3.7843      3.8616      3.9663      4.0965    
  4.2508      4.4295      4.6339      4.8656      5.1250      5.4103      5.7173      6.0398      6.3714      6.7068    
  7.0418      7.3734      7.6979      8.0106      8.3060      8.5785      8.8242      9.0406      9.2261      9.3780    
  9.4924      9.5640      9.5885      9.5640      9.4924      9.3780      9.2261      9.0406      8.8242      8.5785    
  8.3059      8.0106      7.6979      7.3734      7.0418      6.7068      6.3714      6.0398      5.7173      5.4103    
  5.1250      4.8656      4.6339      4.4295      4.2508      4.0965      3.9663      3.8616      3.7843      3.7368    
  3.6454      3.6612      3.7079      3.7840      3.8871      4.0151      4.1668      4.3419      4.5417      4.7675    
  5.0198      5.2971      5.5958      5.9103      6.2348      6.5637      6.8930      7.2189      7.5375      7.8443    
  8.1336      8.4004      8.6407      8.8518      9.0320      9.1788      9.2886      9.3570      9.3803      9.3570    
  9.2886      9.1788      9.0320      8.8518      8.6407      8.4004      8.1336      7.8443      7.5375      7.2188    
  6.8930      6.5637      6.2348      5.9103      5.5958      5.2971      5.0197      4.7675      4.5417      4.3419    
  4.1668      4.0151      3.8871      3.7840      3.7079      3.6612      3.5248      3.5401      3.5853      3.6589    
  3.7588      3.8829      4.0298      4.1992      4.3917      4.6085      4.8500      5.1152      5.4012      5.7032    
  6.0158      6.3337      6.6523      6.9675      7.2754      7.5712      7.8501      8.1074      8.3390      8.5424    
  8.7153      8.8553      8.9592      9.0235      9.0453      9.0235      8.9592      8.8553      8.7153      8.5424    
  8.3390      8.1073      7.8501      7.5712      7.2754      6.9675      6.6523      6.3337      6.0158      5.7032    
  5.4012      5.1152      4.8500      4.6085      4.3917      4.1992      4.0298      3.8829      3.7588      3.6589    
  3.5853      3.5401      3.3645      3.3789      3.4216      3.4913      3.5861      3.7043      3.8443      4.0057    
  4.1887      4.3941      4.6223      4.8726      5.1425      5.4282      5.7246      6.0266      6.3293      6.6285    
  6.9200      7.1998      7.4637      7.7077      7.9283      8.1223      8.2870      8.4198      8.5176      8.5778    
  8.5981      8.5778      8.5176      8.4198      8.2870      8.1223      7.9283      7.7077      7.4637      7.1998    
  6.9200      6.6284      6.3293      6.0266      5.7246      5.4282      5.1425      4.8726      4.6223      4.3941    
  4.1887      4.0056      3.8443      3.7042      3.5861      3.4913      3.4216      3.3789      3.1696      3.1828    
  3.2222      3.2866      3.3747      3.4849      3.6160      3.7673      3.9389      4.1312      4.3443      4.5775    
  4.8288      5.0950      5.3715      5.6533      5.9354      6.2137      6.4842      6.7436      6.9888      7.2167    
  7.4239      7.6072      7.7632      7.8886      7.9807      8.0370      8.0559      8.0370      7.9807      7.8886    
  7.7631      7.6072      7.4239      7.2167      6.9888      6.7436      6.4842      6.2137      5.9354      5.6532    
  5.3715      5.0950      4.8288      4.5775      4.3443      4.1312      3.9389      3.7673      3.6160      3.4849    
  3.3747      3.2866      3.2222      3.1828      2.9448      2.9567      2.9923      3.0507      3.1308      3.2316    
  3.3521      3.4916      3.6501      3.8275      4.0237      4.2380      4.4688      4.7129      4.9666      5.2250    
  5.4834      5.7376      5.9843      6.2209      6.4452      6.6548      6.8468      7.0177      7.1637      7.2811    
  7.3670      7.4193      7.4368      7.4193      7.3670      7.2811      7.1637      7.0177      6.8468      6.6548    
  6.4452      6.2209      5.9843      5.7376      5.4834      5.2250      4.9666      4.7129      4.4687      4.2380    
  4.0237      3.8275      3.6501      3.4916      3.3521      3.2316      3.1308      3.0507      2.9923      2.9567    
  2.6952      2.7059      2.7376      2.7897      2.8615      2.9521      3.0608      3.1872      3.3310      3.4919    
  3.6697      3.8636      4.0719      4.2922      4.5210      4.7542      4.9873      5.2165      5.4387      5.6519    
  5.8545      6.0448      6.2199      6.3765      6.5104      6.6181      6.6966      6.7442      6.7601      6.7442    
  6.6966      6.6181      6.5104      6.3765      6.2199      6.0447      5.8545      5.6519      5.4387      5.2165    
  4.9873      4.7542      4.5210      4.2922      4.0719      3.8635      3.6697      3.4919      3.3310      3.1872    
  3.0608      2.9521      2.8615      2.7897      2.7376      2.7059      2.4276      2.4370      2.4650      2.5112    
  2.5746      2.6549      2.7514      2.8638      2.9918      3.1351      3.2932      3.4652      3.6498      3.8451    
  4.0482      4.2554      4.4630      4.6674      4.8657      5.0563      5.2375      5.4078      5.5648      5.7051    
  5.8249      5.9208      5.9904      6.0324      6.0465      6.0324      5.9904      5.9208      5.8249      5.7051    
  5.5648      5.4078      5.2375      5.0562      4.8657      4.6674      4.4630      4.2554      4.0481      3.8451    
  3.6498      3.4652      3.2931      3.1351      2.9918      2.8638      2.7514      2.6549      2.5746      2.5111    
  2.4650      2.4370      2.1501      2.1584      2.1830      2.2234      2.2790      2.3490      2.4333      2.5314    
  2.6432      2.7682      2.9061      3.0558      3.2165      3.3864      3.5634      3.7447      3.9270      4.1071    
  4.2825      4.4511      4.6114      4.7617      4.8998      5.0226      5.1269      5.2099      5.2697      5.3056    
  5.3175      5.3056      5.2697      5.2098      5.1269      5.0226      4.8998      4.7617      4.6114      4.4511    
  4.2825      4.1071      3.9270      3.7446      3.5634      3.3864      3.2164      3.0558      2.9061      2.7682    
  2.6432      2.5314      2.4333      2.3490      2.2790      2.2234      2.1830      2.1584      1.8717      1.8789    
  1.9003      1.9353      1.9832      2.0434      2.1157      2.1998      2.2955      2.4027      2.5207      2.6487    
  2.7858      2.9310      3.0824      3.2381      3.3955      3.5517      3.7043      3.8512      3.9908      4.1211    
  4.2401      4.3453      4.4340      4.5041      4.5544      4.5845      4.5944      4.5845      4.5544      4.5041    
  4.4340      4.3453      4.2401      4.1211      3.9908      3.8512      3.7043      3.5517      3.3955      3.2381    
  3.0824      2.9310      2.7858      2.6487      2.5206      2.4027      2.2955      2.1997      2.1157      2.0434    
  1.9832      1.9353      1.9003      1.8789      1.6007      1.6069      1.6251      1.6548      1.6953      1.7461    
  1.8069      1.8776      1.9582      2.0484      2.1477      2.2553      2.3704      2.4920      2.6191      2.7500    
  2.8827      3.0151      3.1449      3.2701      3.3888      3.4994      3.5999      3.6882      3.7625      3.8209    
  3.8628      3.8878      3.8961      3.8878      3.8628      3.8209      3.7625      3.6882      3.5999      3.4994    
  3.3888      3.2701      3.1449      3.0151      2.8827      2.7500      2.6191      2.4920      2.3704      2.2553    
  2.1477      2.0484      1.9582      1.8776      1.8069      1.7461      1.6953      1.6548      1.6251      1.6069    
  1.3436      1.3487      1.3639      1.3885      1.4220      1.4639      1.5139      1.5722      1.6388      1.7134    
  1.7955      1.8844      1.9793      2.0794      2.1836      2.2911      2.4002      2.5093      2.6166      2.7202    
  2.8185      2.9099      2.9928      3.0657      3.1270      3.1755      3.2103      3.2312      3.2381      3.2312    
  3.2103      3.1755      3.1270      3.0657      2.9928      2.9099      2.8184      2.7202      2.6166      2.5093    
  2.4002      2.2911      2.1836      2.0793      1.9793      1.8844      1.7955      1.7134      1.6388      1.5722    
  1.5139      1.4638      1.4220      1.3885      1.3639      1.3487      1.1050      1.1091      1.1214      1.1413    
  1.1683      1.2021      1.2424      1.2894      1.3433      1.4037      1.4703      1.5423      1.6189      1.6995    
  1.7831      1.8691      1.9565      2.0438      2.1298      2.2130      2.2920      2.3655      2.4323      2.4913    
  2.5410      2.5807      2.6094      2.6268      2.6326      2.6268      2.6094      2.5807      2.5410      2.4912    
  2.4323      2.3655      2.2920      2.2130      2.1298      2.0438      1.9565      1.8691      1.7831      1.6994    
  1.6189      1.5423      1.4703      1.4037      1.3433      1.2894      1.2424      1.2021      1.1683      1.1413    
  1.1214      1.1091     0.88814     0.89143     0.90115     0.91689     0.93819     0.96476     0.99653      1.0336    
  1.0761      1.1238      1.1764      1.2332      1.2936      1.3568      1.4223      1.4895      1.5577      1.6258    
  1.6929      1.7579      1.8196      1.8771      1.9294      1.9758      2.0152      2.0467      2.0698      2.0839    
  2.0886      2.0839      2.0698      2.0467      2.0151      1.9758      1.9294      1.8771      1.8196      1.7579    
  1.6929      1.6258      1.5577      1.4895      1.4223      1.3568      1.2936      1.2332      1.1764      1.1238    
  1.0761      1.0336     0.99653     0.96476     0.93819     0.91689     0.90115     0.89143     0.69554     0.69810    
 0.70563     0.71783     0.73430     0.75480     0.77926     0.80774     0.84031     0.87687     0.91712     0.96056    
  1.0067      1.0549      1.1049      1.1561      1.2080      1.2600      1.3112      1.3607      1.4077      1.4514    
  1.4912      1.5264      1.5564      1.5805      1.5981      1.6089      1.6125      1.6089      1.5981      1.5805    