Screening bandgap                       
   1.00000000000000     
     6.350000    0.000000    0.000000
     0.000000    6.350000    0.000000
     0.000000    0.000000    6.350000
   C    H 
     1     4
Direct
  0.500000  0.500000  0.500000
  0.400987  0.400987  0.400987
  0.599013  0.599013  0.400987
  0.400987  0.599013  0.599013
  0.599013  0.400987  0.599013
 
   56   56   56
 -.25676E-06 0.41501E-04 0.66852E-03 0.34046E-02 0.10781E-01 0.26171E-01 0.53479E-01 0.96837E-01 0.16048     0.24873    
 0.36583     0.51550     0.70019     0.92056      1.1755      1.4625      1.7783      2.1186      2.4773      2.8457    
  3.2130      3.5672      3.8974      4.1950      4.4530      4.6652      4.8247      4.9244      4.9584      4.9244    
  4.8247      4.6652      4.4530      4.1950      3.8974      3.5672      3.2130      2.8457      2.4772      2.1186    
  1.7783      1.4625      1.1755     0.92055     0.70018     0.51550     0.36583     0.24872     0.16048     0.96835E-01
 0.53477E-01 0.26170E-01 0.10781E-01 0.34044E-02 0.66846E-03 0.41494E-04 0.99798E-05 0.10718E-04 0.51572E-03 0.30503E-02
 0.10147E-01 0.25182E-01 0.52077E-01 0.94996E-01 0.15821     0.24607     0.36284     0.51221     0.69662     0.91675    
  1.1715      1.4584      1.7741      2.1144      2.4731      2.8416      3.2092      3.5639      3.8949      4.1934    
  4.4522      4.6651      4.8250      4.9249      4.9589      4.9249      4.8250      4.6651      4.4522      4.1933    
  3.8949      3.5639      3.2092      2.8416      2.4731      2.1144      1.7741      1.4584      1.1715     0.91674    
 0.69661     0.51220     0.36283     0.24607     0.15821     0.94994E-01 0.52076E-01 0.25182E-01 0.10146E-01 0.30502E-02
 0.51567E-03 0.10715E-04 0.16334E-03 0.39652E-04 0.17513E-03 0.21017E-02 0.83563E-02 0.22330E-01 0.47986E-01 0.89577E-01
 0.15148     0.23812     0.35379     0.50215     0.68565     0.90499      1.1591      1.4457      1.7613      2.1016    
  2.4604      2.8293      3.1976      3.5539      3.8871      4.1881      4.4493      4.6639      4.8249      4.9251    
  4.9592      4.9251      4.8249      4.6639      4.4493      4.1881      3.8871      3.5539      3.1976      2.8293    
  2.4604      2.1016      1.7613      1.4457      1.1591     0.90498     0.68564     0.50215     0.35378     0.23812    
 0.15148     0.89575E-01 0.47985E-01 0.22329E-01 0.83560E-02 0.21016E-02 0.17510E-03 0.39659E-04 0.83231E-03 0.49738E-03
 0.69535E-05 0.90895E-03 0.57553E-02 0.17962E-01 0.41556E-01 0.80907E-01 0.14054     0.22500     0.33861     0.48504    
 0.66676     0.88456      1.1376      1.4235      1.7389      2.0794      2.4386      2.8083      3.1781      3.5367    
  3.8732      4.1778      4.4423      4.6592      4.8213      4.9219      4.9561      4.9219      4.8213      4.6592    
  4.4423      4.1778      3.8731      3.5367      3.1781      2.8083      2.4386      2.0794      1.7389      1.4235    
  1.1375     0.88455     0.66675     0.48504     0.33860     0.22499     0.14054     0.80906E-01 0.41555E-01 0.17961E-01
 0.57550E-02 0.90886E-03 0.69589E-05 0.49741E-03 0.26357E-02 0.19995E-02 0.61764E-03 0.66891E-04 0.29309E-02 0.12667E-01
 0.33379E-01 0.69566E-01 0.12591     0.20708     0.31749     0.46086     0.63972     0.85506      1.1062      1.3911    
  1.7063      2.0471      2.4071      2.7781      3.1500      3.5116      3.8519      4.1605      4.4284      4.6476    
  4.8108      4.9117      4.9458      4.9117      4.8108      4.6476      4.4284      4.1605      3.8519      3.5116    
  3.1500      2.7781      2.4071      2.0471      1.7063      1.3911      1.1062     0.85505     0.63971     0.46085    
 0.31749     0.20708     0.12591     0.69564E-01 0.33378E-01 0.12666E-01 0.29307E-02 0.66867E-04 0.61769E-03 0.19995E-02
 0.63982E-02 0.53709E-02 0.28313E-02 0.39537E-03 0.69790E-03 0.72598E-02 0.24277E-01 0.56377E-01 0.10839     0.18513    
 0.29112     0.43018     0.60504     0.81693      1.0655      1.3487      1.6633      2.0044      2.3655      2.7383    
  3.1127      3.4776      3.8216      4.1340      4.4051      4.6263      4.7904      4.8914      4.9256      4.8914    
  4.7904      4.6263      4.4051      4.1340      3.8216      3.4776      3.1127      2.7383      2.3655      2.0044    
  1.6633      1.3487      1.0655     0.81692     0.60503     0.43018     0.29111     0.18513     0.10839     0.56376E-01
 0.24276E-01 0.72594E-02 0.69780E-03 0.39543E-03 0.28314E-02 0.53709E-02 0.13074E-01 0.11573E-01 0.76234E-02 0.28823E-02
 0.48937E-04 0.27347E-02 0.15251E-01 0.42360E-01 0.89035E-01 0.16023     0.26062     0.39422     0.56400     0.77148    
  1.0166      1.2975      1.6109      1.9520      2.3139      2.6885      3.0654      3.4335      3.7810      4.0968    
  4.3707      4.5938      4.7588      4.8603      4.8945      4.8603      4.7588      4.5938      4.3706      4.0968    
  3.7810      3.4335      3.0654      2.6885      2.3139      1.9519      1.6109      1.2975      1.0166     0.77148    
 0.56399     0.39421     0.26061     0.16023     0.89033E-01 0.42359E-01 0.15250E-01 0.27344E-02 0.48964E-04 0.28825E-02
 0.76236E-02 0.11573E-01 0.23674E-01 0.21628E-01 0.16048E-01 0.86126E-02 0.20877E-02 0.20116E-03 0.74152E-02 0.28647E-01
 0.69014E-01 0.13362     0.22734     0.35445     0.51822     0.72044     0.96124      1.2390      1.5504      1.8906    
  2.2530      2.6289      3.0081      3.3790      3.7296      4.0484      4.3248      4.5501      4.7167      4.8191    
  4.8537      4.8191      4.7167      4.5501      4.3248      4.0484      3.7296      3.3790      3.0081      2.6289    
  2.2530      1.8906      1.5504      1.2390     0.96123     0.72043     0.51821     0.35445     0.22734     0.13362    
 0.69012E-01 0.28646E-01 0.74147E-02 0.20109E-03 0.20879E-02 0.86129E-02 0.16048E-01 0.21628E-01 0.39234E-01 0.36586E-01
 0.29189E-01 0.18712E-01 0.79693E-02 0.82647E-03 0.19382E-02 0.16412E-01 0.49528E-01 0.10657     0.19262     0.31229    
 0.46916     0.66531     0.90099      1.1746      1.4831      1.8215      2.1834      2.5602      2.9413      3.3147    
  3.6680      3.9896      4.2689      4.4969      4.6661      4.7703      4.8055      4.7702      4.6660      4.4969    
  4.2689      3.9896      3.6680      3.3147      2.9413      2.5602      2.1834      1.8215      1.4831      1.1746    
 0.90098     0.66530     0.46916     0.31229     0.19262     0.10656     0.49527E-01 0.16411E-01 0.19379E-02 0.82660E-03
 0.79697E-02 0.18712E-01 0.29189E-01 0.36586E-01 0.60808E-01 0.57512E-01 0.48139E-01 0.34306E-01 0.18852E-01 0.57890E-02
 0.57071E-05 0.68419E-02 0.31767E-01 0.80245E-01 0.15764     0.26889     0.41795     0.60712     0.83676      1.1053    
  1.4098      1.7456      2.1063      2.4835      2.8662      3.2419      3.5978      3.9222      4.2047      4.4363    
  4.6089      4.7157      4.7519      4.7157      4.6089      4.4363      4.2047      3.9222      3.5978      3.2418    
  2.8662      2.4835      2.1063      1.7456      1.4098      1.1053     0.83675     0.60712     0.41794     0.26888    
 0.15763     0.80243E-01 0.31766E-01 0.68413E-02 0.57209E-05 0.57894E-02 0.18852E-01 0.34307E-01 0.48139E-01 0.57512E-01
 0.89436E-01 0.85447E-01 0.73946E-01 0.56464E-01 0.35835E-01 0.16224E-01 0.27814E-02 0.11171E-02 0.16915E-01 0.55838E-01
 0.12352     0.22529     0.36546     0.54661     0.76919      1.0317      1.3313      1.6637      2.0227      2.4000    
  2.7841      3.1621      3.5207      3.8481      4.1342      4.3698      4.5464      4.6563      4.6936      4.6563    
  4.5464      4.3698      4.1342      3.8481      3.5207      3.1620      2.7841      2.3999      2.0227      1.6636    
  1.3313      1.0317     0.76918     0.54661     0.36545     0.22528     0.12352     0.55836E-01 0.16914E-01 0.11169E-02
 0.27817E-02 0.16224E-01 0.35836E-01 0.56464E-01 0.73947E-01 0.85448E-01 0.12603     0.12129     0.10750     0.86088E-01
 0.59861E-01 0.33136E-01 0.11340E-01 0.37144E-03 0.61500E-02 0.34549E-01 0.91477E-01 0.18263     0.31273     0.48467    
 0.69907     0.95456      1.2484      1.5768      1.9337      2.3108      2.6962      3.0765      3.4379      3.7684    
  4.0580      4.2977      4.4783      4.5912      4.6297      4.5912      4.4783      4.2977      4.0580      3.7684    
  3.4379      3.0764      2.6962      2.3107      1.9337      1.5767      1.2484     0.95455     0.69906     0.48467    
 0.31273     0.18262     0.91475E-01 0.34548E-01 0.61494E-02 0.37156E-03 0.11340E-01 0.33137E-01 0.59862E-01 0.86089E-01
 0.10751     0.12129     0.17118     0.16564     0.14940     0.12378     0.91592E-01 0.57291E-01 0.26563E-01 0.56004E-02
 0.57198E-03 0.17574E-01 0.62781E-01 0.14225     0.26112     0.42264     0.62770     0.87518      1.1626      1.4862    
  1.8406      2.2169      2.6033      2.9855      3.3495      3.6831      3.9760      4.2192      4.4032      4.5186    
  4.5580      4.5186      4.4032      4.2192      3.9760      3.6831      3.3495      2.9855      2.6033      2.2169    
  1.8405      1.4862      1.1626     0.87517     0.62770     0.42263     0.26111     0.14224     0.62779E-01 0.17572E-01
 0.57181E-03 0.56009E-02 0.26564E-01 0.57292E-01 0.91594E-01 0.12378     0.14940     0.16564     0.22505     0.21865    
 0.19978     0.16973     0.13132     0.89117E-01 0.49037E-01 0.17544E-01 0.10683E-02 0.59546E-02 0.38648E-01 0.10554    
 0.21216     0.36217     0.55686     0.79538      1.0755      1.3937      1.7446      2.1193      2.5057      2.8892    
  3.2553      3.5915      3.8873      4.1333      4.3197      4.4368      4.4768      4.4368      4.3197      4.1333    
  3.8873      3.5915      3.2553      2.8892      2.5057      2.1193      1.7446      1.3937      1.0755     0.79537    
 0.55685     0.36217     0.21215     0.10553     0.38647E-01 0.59540E-02 0.10685E-02 0.17545E-01 0.49038E-01 0.89118E-01
 0.13132     0.16973     0.19978     0.21865     0.28737     0.28004     0.25839     0.22374     0.17894     0.12867    
 0.78991E-01 0.36597E-01 0.81961E-02 0.42362E-03 0.20013E-01 0.73657E-01 0.16725     0.30490     0.48832     0.71706    
 0.98910      1.3010      1.6472      2.0190      2.4040      2.7876      3.1551      3.4934      3.7915      4.0395    
  4.2274      4.3453      4.3856      4.3453      4.2274      4.0395      3.7915      3.4934      3.1551      2.7876    
  2.4040      2.0190      1.6472      1.3010     0.98909     0.71705     0.48831     0.30490     0.16725     0.73654E-01
 0.20012E-01 0.42346E-03 0.81968E-02 0.36598E-01 0.78992E-01 0.12867     0.17895     0.22374     0.25839     0.28004    
 0.35754     0.34922     0.32467     0.28530     0.23406     0.17567     0.11630     0.62787E-01 0.22137E-01 0.13241E-02
 0.74022E-02 0.47349E-01 0.12738     0.25202     0.42347     0.64172     0.90492      1.2096      1.5499      1.9171    
  2.2992      2.6816      3.0496      3.3895      3.6895      3.9389      4.1274      4.2453      4.2856      4.2453    
  4.1274      3.9389      3.6895      3.3894      3.0495      2.6816      2.2992      1.9171      1.5499      1.2095    
 0.90491     0.64171     0.42346     0.25201     0.12738     0.47347E-01 0.74015E-02 0.13243E-02 0.22139E-01 0.62789E-01
 0.11630     0.17568     0.23406     0.28530     0.32467     0.34922     0.43474     0.42540     0.39785     0.35368    
 0.29600     0.22956     0.16051     0.95805E-01 0.42729E-01 0.86433E-02 0.95819E-03 0.26921E-01 0.93020E-01 0.20418    
 0.36313     0.57031     0.82404      1.1206      1.4540      1.8154      2.1931      2.5730      2.9407      3.2817    
  3.5833      3.8337      4.0221      4.1396      4.1795      4.1396      4.0221      3.8337      3.5833      3.2817    
  2.9406      2.5730      2.1930      1.8154      1.4540      1.1206     0.82403     0.57031     0.36312     0.20417    
 0.93017E-01 0.26919E-01 0.95793E-03 0.86440E-02 0.42731E-01 0.95807E-01 0.16051     0.22956     0.29600     0.35369    
 0.39785     0.42540     0.51794     0.50754     0.47693     0.42795     0.36388     0.28950     0.21088     0.13503    
 0.69511E-01 0.22085E-01 0.54136E-03 0.12383E-01 0.64334E-01 0.16169     0.30775     0.50344     0.74722      1.0352    
  1.3609      1.7155      2.0878      2.4645      2.8311      3.1728      3.4756      3.7265      3.9146      4.0311    
  4.0706      4.0311      3.9146      3.7265      3.4756      3.1728      2.8311      2.4645      2.0878      1.7155    
  1.3609      1.0351     0.74721     0.50343     0.30775     0.16169     0.64331E-01 0.12382E-01 0.54156E-03 0.22086E-01
 0.69513E-01 0.13504     0.21088     0.28950     0.36389     0.42795     0.47693     0.50754     0.60563     0.59417    
 0.56053     0.50680     0.43647     0.35431     0.26632     0.17953     0.10173     0.41095E-01 0.57925E-02 0.35622E-02
 0.41335E-01 0.12478     0.25772     0.44162     0.67514     0.95410      1.2718      1.6192      1.9856      2.3585    
  2.7235      3.0654      3.3690      3.6201      3.8074      3.9228      3.9618      3.9228      3.8073      3.6200    
  3.3689      3.0654      2.7235      2.3584      1.9856      1.6192      1.2718     0.95409     0.67513     0.44161    
 0.25772     0.12477     0.41333E-01 0.35616E-02 0.57932E-02 0.41096E-01 0.10173     0.17953     0.26633     0.35432    
 0.43647     0.50680     0.56053     0.59418     0.69570     0.68325     0.64671     0.58844     0.51209     0.42244    
 0.32539     0.22800     0.13829     0.64823E-01 0.16105E-01 0.99507E-04 0.23931E-01 0.93600E-01 0.21347     0.38551    
 0.60861     0.87845      1.1880      1.5282      1.8886      2.2572      2.6201      2.9616      3.2652      3.5160    
  3.7024      3.8167      3.8552      3.8167      3.7024      3.5160      3.2652      2.9616      2.6201      2.2572    
  1.8886      1.5281      1.1880     0.87844     0.60860     0.38550     0.21346     0.93597E-01 0.23930E-01 0.99417E-04
 0.16106E-01 0.64825E-01 0.13829     0.22800     0.32539     0.42244     0.51209     0.58844     0.64671     0.68325    
 0.78549     0.77215     0.73301     0.67059     0.58862     0.49188     0.38624     0.27878     0.17776     0.92087E-01
 0.30563E-01 0.13709E-02 0.11824E-01 0.68228E-01 0.17540     0.33578     0.54852     0.80924      1.1107      1.4437    
  1.7981      2.1624      2.5226      2.8627      3.1657      3.4158      3.6012      3.7146      3.7527      3.7146    
  3.6012      3.4158      3.1657      2.8627      2.5226      2.1623      1.7981      1.4437      1.1106     0.80923    
 0.54851     0.33578     0.17540     0.68225E-01 0.11823E-01 0.13713E-02 0.30565E-01 0.92089E-01 0.17777     0.27878    
 0.38624     0.49189     0.58862     0.67059     0.73302     0.77215     0.87209     0.85802     0.81671     0.75067    
 0.66365     0.56039     0.44675     0.32994     0.21844     0.12142     0.47960E-01 0.64509E-02 0.44127E-02 0.48421E-01
 0.14365     0.29291     0.49557     0.74733      1.0408      1.3670      1.7156      2.0753      2.4322      2.7702    
  3.0718      3.3209      3.5054      3.6182      3.6561      3.6182      3.5054      3.3209      3.0718      2.7702    
  2.4322      2.0753      1.7156      1.3670      1.0408     0.74732     0.49557     0.29290     0.14365     0.48419E-01
 0.44120E-02 0.64516E-02 0.47962E-01 0.12142     0.21844     0.32995     0.44676     0.56040     0.66366     0.75068    
 0.81671     0.85802     0.95283     0.93821     0.89520     0.82618     0.73475     0.62562     0.50473     0.37946    
 0.25849     0.15122     0.66916E-01 0.14198E-01 0.81601E-03 0.33592E-01 0.11795     0.25692     0.45010     0.69331    
 0.97932      1.2990      1.6422      1.9974      2.3506      2.6858      2.9854      3.2334      3.4173      3.5299    
  3.5677      3.5299      3.4173      3.2334      2.9854      2.6858      2.3506      1.9973      1.6422      1.2990    
 0.97931     0.69330     0.45009     0.25691     0.11795     0.33591E-01 0.81574E-03 0.14199E-01 0.66918E-01 0.15122    
 0.25850     0.37946     0.50474     0.62562     0.73475     0.82618     0.89520     0.93821      1.0256      1.0106    
 0.96628     0.89484     0.79964     0.68535     0.55805     0.42536     0.29613     0.17989     0.86049E-01 0.23419E-01
 0.19173E-04 0.22911E-01 0.97679E-01 0.22746     0.41201     0.64740     0.92660      1.2406      1.5790      1.9300    
  2.2796      2.6117      2.9091      3.1558      3.3395      3.4523      3.4903      3.4523      3.3395      3.1558    
  2.9091      2.6117      2.2796      1.9300      1.5790      1.2406     0.92659     0.64739     0.41201     0.22746    
 0.97676E-01 0.22910E-01 0.19214E-04 0.23421E-01 0.86051E-01 0.17989     0.29614     0.42536     0.55806     0.68535    
 0.79964     0.89484     0.96628      1.0106      1.0886      1.0734      1.0281     0.95472     0.85631     0.73757    
 0.60480     0.46585     0.32974     0.20599     0.10408     0.32994E-01 0.10329E-02 0.15499E-01 0.82087E-01 0.20397    
 0.38104     0.60962     0.88303      1.1923      1.5269      1.8745      2.2208      2.5499      2.8451      3.0908    
  3.2746      3.3879      3.4262      3.3879      3.2746      3.0908      2.8451      2.5499      2.2208      1.8745    
  1.5269      1.1923     0.88302     0.60961     0.38103     0.20397     0.82084E-01 0.15498E-01 0.10332E-02 0.32996E-01
 0.10408     0.20599     0.32974     0.46586     0.60480     0.73758     0.85632     0.95472      1.0281      1.0734    
  1.1405      1.1250      1.0790      1.0040     0.90294     0.78051     0.64327     0.49934     0.35782     0.22817    
 0.11982     0.41899E-01 0.29721E-02 0.10580E-01 0.70508E-01 0.18595     0.35689     0.57997     0.84884      1.1547    
  1.4865      1.8316      2.1754      2.5020      2.7953      3.0402      3.2242      3.3383      3.3769      3.3383    
  3.2242      3.0402      2.7953      2.5020      2.1754      1.8316      1.4865      1.1547     0.84883     0.57996    
 0.35688     0.18594     0.70506E-01 0.10579E-01 0.29726E-02 0.41901E-01 0.11982     0.22817     0.35782     0.49935    
 0.64327     0.78051     0.90295      1.0040      1.0790      1.1250      1.1795      1.1639      1.1173      1.0410    
 0.93784     0.81256     0.67199     0.52445     0.37905     0.24517     0.13215     0.49180E-01 0.50579E-02 0.75340E-02
 0.62480E-01 0.17310     0.33948     0.55854     0.82422      1.1278      1.4580      1.8016      2.1436      2.4684    
  2.7602      3.0046      3.1890      3.3037      3.3426      3.3037      3.1890      3.0046      2.7602      2.4684    
  2.1436      1.8016      1.4580      1.1278     0.82422     0.55853     0.33948     0.17310     0.62478E-01 0.75332E-02
 0.50585E-02 0.49182E-01 0.13215     0.24518     0.37906     0.52445     0.67200     0.81257     0.93784      1.0410    
  1.1173      1.1639      1.2039      1.1881      1.1411      1.0640     0.95950     0.83241     0.68977     0.54003    
 0.39232     0.25591     0.14005     0.53976E-01 0.66274E-02 0.59031E-02 0.57741E-01 0.16536     0.32893     0.54554    
 0.80936      1.1117      1.4411      1.7839      2.1250      2.4487      2.7397      2.9837      3.1683      3.2835    
  3.3227      3.2835      3.1683      2.9837      2.7397      2.4487      2.1250      1.7839      1.4411      1.1117    
 0.80935     0.54553     0.32892     0.16536     0.57738E-01 0.59024E-02 0.66281E-02 0.53978E-01 0.14005     0.25591    
 0.39233     0.54003     0.68977     0.83242     0.95950      1.0640      1.1412      1.1881      1.2122      1.1964    
  1.1493      1.0719     0.96685     0.83914     0.69579     0.54531     0.39684     0.25958     0.14277     0.55653E-01
 0.72087E-02 0.53938E-02 0.56172E-01 0.16277     0.32538     0.54118     0.80439      1.1063      1.4355      1.7781    
  2.1189      2.4422      2.7329      2.9769      3.1616      3.2769      3.3162      3.2769      3.1616      2.9769    
  2.7329      2.4422      2.1189      1.7781      1.4355      1.1063     0.80438     0.54117     0.32538     0.16277    
 0.56169E-01 0.53931E-02 0.72094E-02 0.55655E-01 0.14278     0.25959     0.39684     0.54532     0.69579     0.83914    
 0.96685      1.0719      1.1493      1.1964      1.2039      1.1881      1.1411      1.0640     0.95950     0.83241    
 0.68977     0.54003     0.39232     0.25591     0.14005     0.53976E-01 0.66274E-02 0.59031E-02 0.57741E-01 0.16536    
 0.32893     0.54554     0.80936      1.1117      1.4411      1.7839      2.1250      2.4487      2.7397      2.9837    
  3.1683      3.2835      3.3227      3.2835      3.1683      2.9837      2.7397      2.4487      2.1250      1.7839    
  1.4411      1.1117     0.80935     0.54553     0.32892     0.16536     0.57739E-01 0.59024E-02 0.66281E-02 0.53977E-01
 0.14005     0.25591     0.39233     0.54003     0.68977     0.83242     0.95950      1.0640      1.1412      1.1881    
  1.1795      1.1639      1.1173      1.0410     0.93784     0.81256     0.67199     0.52445     0.37905     0.24517    
 0.13215     0.49180E-01 0.50578E-02 0.75340E-02 0.62480E-01 0.17310     0.33948     0.55854     0.82422      1.1278    
  1.4580      1.8016      2.1436      2.4684      2.7602      3.0046      3.1890      3.3037      3.3426      3.3037    
  3.1890      3.0046      2.7602      2.4684      2.1436      1.8016      1.4580      1.1278     0.82422     0.55854    
 0.33948     0.17310     0.62478E-01 0.75333E-02 0.50584E-02 0.49182E-01 0.13215     0.24518     0.37906     0.52445    
 0.67200     0.81257     0.93784      1.0410      1.1173      1.1639      1.1405      1.1250      1.0790      1.0040    
 0.90294     0.78050     0.64327     0.49934     0.35782     0.22817     0.11982     0.41899E-01 0.29720E-02 0.10580E-01
 0.70508E-01 0.18595     0.35689     0.57997     0.84884      1.1547      1.4865      1.8316      2.1754      2.5020    
  2.7953      3.0402      3.2242      3.3383      3.3769      3.3383      3.2242      3.0402      2.7953      2.5020    
  2.1754      1.8316      1.4865      1.1547     0.84883     0.57996     0.35688     0.18595     0.70506E-01 0.10579E-01
 0.29725E-02 0.41901E-01 0.11982     0.22817     0.35782     0.49935     0.64327     0.78051     0.90295      1.0040    
  1.0790      1.1250      1.0886      1.0734      1.0281     0.95472     0.85631     0.73757     0.60480     0.46585    
 0.32973     0.20599     0.10408     0.32994E-01 0.10329E-02 0.15500E-01 0.82087E-01 0.20397     0.38104     0.60962    
 0.88303      1.1923      1.5269      1.8745      2.2208      2.5499      2.8451      3.0908      3.2746      3.3879    
  3.4262      3.3879      3.2746      3.0908      2.8451      2.5499      2.2208      1.8745      1.5269      1.1923    
 0.88302     0.60962     0.38103     0.20397     0.82084E-01 0.15499E-01 0.10331E-02 0.32995E-01 0.10408     0.20599    
 0.32974     0.46585     0.60480     0.73757     0.85631     0.95472      1.0281      1.0734      1.0256      1.0106    
 0.96627     0.89484     0.79964     0.68535     0.55805     0.42536     0.29613     0.17989     0.86048E-01 0.23419E-01
 0.19163E-04 0.22912E-01 0.97680E-01 0.22746     0.41202     0.64740     0.92660      1.2406      1.5790      1.9300    
  2.2796      2.6117      2.9091      3.1558      3.3395      3.4523      3.4903      3.4523      3.3395      3.1558    
  2.9091      2.6117      2.2796      1.9300      1.5790      1.2406     0.92660     0.64739     0.41201     0.22746    
 0.97677E-01 0.22910E-01 0.19200E-04 0.23420E-01 0.86050E-01 0.17989     0.29614     0.42536     0.55806     0.68535    
 0.79964     0.89484     0.96628      1.0106     0.95282     0.93820     0.89520     0.82617     0.73475     0.62562    
 0.50473     0.37946     0.25849     0.15121     0.66915E-01 0.14198E-01 0.81608E-03 0.33593E-01 0.11795     0.25692    
 0.45010     0.69331     0.97932      1.2990      1.6422      1.9974      2.3507      2.6858      2.9855      3.2334    
  3.4173      3.5299      3.5677      3.5299      3.4173      3.2334      2.9854      2.6858      2.3506      1.9974    
  1.6422      1.2990     0.97931     0.69330     0.45009     0.25692     0.11795     0.33591E-01 0.81584E-03 0.14199E-01
 0.66917E-01 0.15122     0.25849     0.37946     0.50473     0.62562     0.73475     0.82618     0.89520     0.93821    
 0.87209     0.85802     0.81671     0.75067     0.66365     0.56039     0.44675     0.32994     0.21844     0.12142    
 0.47959E-01 0.64506E-02 0.44129E-02 0.48422E-01 0.14365     0.29291     0.49558     0.74733      1.0408      1.3670    
  1.7156      2.0753      2.4322      2.7702      3.0718      3.3209      3.5054      3.6182      3.6561      3.6182    
  3.5054      3.3209      3.0718      2.7702      2.4322      2.0753      1.7156      1.3670      1.0408     0.74733    
 0.49557     0.29290     0.14365     0.48420E-01 0.44123E-02 0.64513E-02 0.47961E-01 0.12142     0.21844     0.32995    
 0.44675     0.56039     0.66365     0.75067     0.81671     0.85802     0.78549     0.77215     0.73301     0.67058    
 0.58862     0.49188     0.38623     0.27878     0.17776     0.92086E-01 0.30563E-01 0.13708E-02 0.11825E-01 0.68228E-01
 0.17540     0.33578     0.54852     0.80924      1.1107      1.4437      1.7981      2.1624      2.5226      2.8627    
  3.1657      3.4158      3.6012      3.7146      3.7527      3.7146      3.6012      3.4158      3.1657      2.8627    
  2.5226      2.1624      1.7981      1.4437      1.1106     0.80923     0.54852     0.33578     0.17540     0.68226E-01
 0.11824E-01 0.13711E-02 0.30564E-01 0.92088E-01 0.17776     0.27878     0.38624     0.49188     0.58862     0.67059    
 0.73301     0.77215     0.69570     0.68325     0.64671     0.58844     0.51209     0.42243     0.32539     0.22800    
 0.13829     0.64822E-01 0.16104E-01 0.99540E-04 0.23932E-01 0.93601E-01 0.21347     0.38551     0.60862     0.87846    
  1.1880      1.5282      1.8886      2.2572      2.6201      2.9616      3.2652      3.5160      3.7024      3.8168    
  3.8552      3.8167      3.7024      3.5160      3.2652      2.9616      2.6201      2.2572      1.8886      1.5281    
  1.1880     0.87845     0.60861     0.38550     0.21347     0.93598E-01 0.23931E-01 0.99461E-04 0.16105E-01 0.64824E-01
 0.13829     0.22800     0.32539     0.42244     0.51209     0.58844     0.64671     0.68325     0.60562     0.59417    
 0.56052     0.50680     0.43647     0.35431     0.26632     0.17953     0.10173     0.41094E-01 0.57923E-02 0.35624E-02
 0.41336E-01 0.12478     0.25772     0.44162     0.67514     0.95411      1.2718      1.6192      1.9856      2.3585    
  2.7235      3.0654      3.3690      3.6201      3.8074      3.9228      3.9618      3.9228      3.8074      3.6201    
  3.3690      3.0654      2.7235      2.3585      1.9856      1.6192      1.2718     0.95410     0.67513     0.44162    
 0.25772     0.12477     0.41334E-01 0.35619E-02 0.57928E-02 0.41095E-01 0.10173     0.17953     0.26632     0.35432    
 0.43647     0.50680     0.56053     0.59417     0.51793     0.50754     0.47693     0.42795     0.36388     0.28950    
 0.21087     0.13503     0.69510E-01 0.22084E-01 0.54128E-03 0.12384E-01 0.64335E-01 0.16170     0.30776     0.50344    
 0.74722      1.0352      1.3609      1.7155      2.0878      2.4645      2.8311      3.1728      3.4756      3.7266    
  3.9146      4.0311      4.0706      4.0311      3.9146      3.7265      3.4756      3.1728      2.8311      2.4645    
  2.0878      1.7155      1.3609      1.0352     0.74722     0.50343     0.30775     0.16169     0.64333E-01 0.12383E-01
 0.54145E-03 0.22085E-01 0.69512E-01 0.13503     0.21088     0.28950     0.36388     0.42795     0.47693     0.50754    
 0.43474     0.42540     0.39785     0.35368     0.29600     0.22956     0.16051     0.95804E-01 0.42729E-01 0.86430E-02
 0.95830E-03 0.26922E-01 0.93021E-01 0.20418     0.36313     0.57032     0.82405      1.1206      1.4540      1.8154    
  2.1931      2.5731      2.9407      3.2817      3.5833      3.8337      4.0222      4.1396      4.1795      4.1396    
  4.0222      3.8337      3.5833      3.2817      2.9407      2.5730      2.1931      1.8154      1.4540      1.1206    
 0.82404     0.57031     0.36313     0.20417     0.93019E-01 0.26920E-01 0.95808E-03 0.86436E-02 0.42730E-01 0.95806E-01
 0.16051     0.22956     0.29600     0.35368     0.39785     0.42540     0.35753     0.34922     0.32467     0.28529    
 0.23405     0.17567     0.11629     0.62786E-01 0.22137E-01 0.13239E-02 0.74025E-02 0.47350E-01 0.12738     0.25202    
 0.42347     0.64172     0.90492      1.2096      1.5499      1.9172      2.2992      2.6816      3.0496      3.3895    
  3.6895      3.9389      4.1274      4.2454      4.2856      4.2454      4.1274      3.9389      3.6895      3.3895    
  3.0496      2.6816      2.2992      1.9171      1.5499      1.2096     0.90491     0.64171     0.42347     0.25201    
 0.12738     0.47348E-01 0.74019E-02 0.13242E-02 0.22138E-01 0.62787E-01 0.11630     0.17567     0.23406     0.28530    
 0.32467     0.34922     0.28737     0.28004     0.25839     0.22374     0.17894     0.12867     0.78989E-01 0.36596E-01
 0.81958E-02 0.42370E-03 0.20014E-01 0.73658E-01 0.16726     0.30491     0.48832     0.71706     0.98910      1.3010    
  1.6472      2.0190      2.4040      2.7876      3.1551      3.4934      3.7915      4.0395      4.2274      4.3453    
  4.3856      4.3453      4.2274      4.0395      3.7915      3.4934      3.1551      2.7876      2.4040      2.0190    
  1.6472      1.3010     0.98909     0.71705     0.48832     0.30490     0.16725     0.73656E-01 0.20013E-01 0.42356E-03
 0.81963E-02 0.36597E-01 0.78991E-01 0.12867     0.17894     0.22374     0.25839     0.28004     0.22505     0.21865    
 0.19978     0.16973     0.13132     0.89115E-01 0.49036E-01 0.17543E-01 0.10681E-02 0.59549E-02 0.38649E-01 0.10554    
 0.21216     0.36218     0.55686     0.79538      1.0755      1.3937      1.7446      2.1193      2.5057      2.8892    
  3.2553      3.5915      3.8873      4.1333      4.3197      4.4368      4.4768      4.4368      4.3197      4.1333    