Screening bandgap                       
   1.00000000000000     
     6.350000    0.000000    0.000000
     0.000000    6.350000    0.000000
     0.000000    0.000000    6.350000
   C    H 
     1     4
Direct
  0.500000  0.500000  0.500000
  0.400987  0.400987  0.400987
  0.599013  0.599013  0.400987
  0.400987  0.599013  0.599013
  0.599013  0.400987  0.599013
 
   56   56   56
  1.1423      1.1437      1.1476      1.1539      1.1624      1.1731      1.1862      1.2018      1.2196      1.2391    
  1.2600      1.2820      1.3053      1.3301      1.3559      1.3819      1.4068      1.4293      1.4490      1.4666    
  1.4832      1.4997      1.5160      1.5309      1.5427      1.5505      1.5546      1.5560      1.5563      1.5560    
  1.5546      1.5505      1.5427      1.5309      1.5160      1.4997      1.4832      1.4666      1.4490      1.4293    
  1.4068      1.3819      1.3559      1.3301      1.3053      1.2820      1.2600      1.2391      1.2196      1.2018    
  1.1862      1.1731      1.1624      1.1539      1.1476      1.1437      1.1437      1.1450      1.1490      1.1553    
  1.1639      1.1747      1.1879      1.2036      1.2215      1.2413      1.2624      1.2846      1.3080      1.3326    
  1.3583      1.3842      1.4090      1.4317      1.4518      1.4697      1.4867      1.5033      1.5196      1.5345    
  1.5463      1.5543      1.5585      1.5601      1.5605      1.5601      1.5585      1.5543      1.5463      1.5345    
  1.5196      1.5033      1.4867      1.4697      1.4518      1.4317      1.4090      1.3842      1.3583      1.3326    
  1.3080      1.2846      1.2624      1.2413      1.2215      1.2036      1.1879      1.1747      1.1639      1.1553    
  1.1490      1.1450      1.1476      1.1490      1.1531      1.1595      1.1683      1.1793      1.1928      1.2088    
  1.2273      1.2477      1.2694      1.2921      1.3157      1.3402      1.3654      1.3909      1.4157      1.4388    
  1.4598      1.4789      1.4967      1.5139      1.5302      1.5449      1.5568      1.5651      1.5700      1.5722    
  1.5728      1.5722      1.5700      1.5651      1.5568      1.5449      1.5302      1.5139      1.4967      1.4789    
  1.4598      1.4388      1.4157      1.3909      1.3654      1.3402      1.3157      1.2921      1.2694      1.2477    
  1.2273      1.2088      1.1928      1.1793      1.1683      1.1595      1.1531      1.1490      1.1539      1.1553    
  1.1595      1.1663      1.1753      1.1867      1.2007      1.2174      1.2367      1.2581      1.2808      1.3043    
  1.3282      1.3525      1.3772      1.4022      1.4269      1.4506      1.4730      1.4936      1.5128      1.5306    
  1.5471      1.5616      1.5735      1.5823      1.5881      1.5913      1.5922      1.5913      1.5881      1.5823    
  1.5735      1.5616      1.5471      1.5306      1.5128      1.4936      1.4730      1.4506      1.4269      1.4022    
  1.3772      1.3525      1.3282      1.3043      1.2808      1.2581      1.2367      1.2174      1.2007      1.1867    
  1.1753      1.1663      1.1595      1.1553      1.1624      1.1639      1.1683      1.1753      1.1848      1.1968    
  1.2115      1.2291      1.2494      1.2720      1.2959      1.3204      1.3449      1.3691      1.3934      1.4179    
  1.4426      1.4672      1.4910      1.5135      1.5342      1.5528      1.5693      1.5836      1.5955      1.6050    
  1.6118      1.6159      1.6173      1.6159      1.6118      1.6050      1.5955      1.5836      1.5693      1.5528    
  1.5342      1.5135      1.4910      1.4672      1.4426      1.4179      1.3934      1.3691      1.3449      1.3204    
  1.2959      1.2720      1.2494      1.2291      1.2115      1.1968      1.1848      1.1753      1.1683      1.1639    
  1.1731      1.1747      1.1793      1.1867      1.1968      1.2096      1.2251      1.2436      1.2650      1.2887    
  1.3138      1.3394      1.3646      1.3893      1.4135      1.4380      1.4630      1.4885      1.5140      1.5383    
  1.5604      1.5798      1.5963      1.6103      1.6222      1.6322      1.6400      1.6451      1.6468      1.6451    
  1.6400      1.6322      1.6222      1.6103      1.5963      1.5798      1.5604      1.5383      1.5140      1.4885    
  1.4630      1.4380      1.4135      1.3893      1.3646      1.3394      1.3138      1.2887      1.2650      1.2436    
  1.2251      1.2096      1.1968      1.1867      1.1793      1.1747      1.1862      1.1879      1.1928      1.2007    
  1.2115      1.2251      1.2416      1.2609      1.2830      1.3075      1.3336      1.3602      1.3866      1.4122    
  1.4372      1.4623      1.4881      1.5148      1.5418      1.5677      1.5911      1.6112      1.6277      1.6414    
  1.6531      1.6634      1.6719      1.6777      1.6798      1.6777      1.6719      1.6634      1.6531      1.6414    
  1.6277      1.6112      1.5911      1.5677      1.5418      1.5148      1.4881      1.4623      1.4372      1.4122    
  1.3866      1.3602      1.3336      1.3075      1.2830      1.2609      1.2416      1.2251      1.2115      1.2007    
  1.1928      1.1879      1.2018      1.2036      1.2088      1.2174      1.2291      1.2436      1.2609      1.2808    
  1.3032      1.3280      1.3547      1.3824      1.4102      1.4375      1.4642      1.4908      1.5179      1.5459    
  1.5742      1.6014      1.6259      1.6465      1.6631      1.6766      1.6881      1.6985      1.7073      1.7135    
  1.7157      1.7135      1.7073      1.6985      1.6881      1.6766      1.6631      1.6465      1.6259      1.6014    
  1.5742      1.5459      1.5179      1.4908      1.4642      1.4375      1.4102      1.3824      1.3547      1.3280    
  1.3032      1.2808      1.2609      1.2436      1.2291      1.2174      1.2088      1.2036      1.2196      1.2215    
  1.2273      1.2367      1.2494      1.2650      1.2830      1.3032      1.3257      1.3504      1.3773      1.4060    
  1.4355      1.4651      1.4942      1.5230      1.5519      1.5813      1.6106      1.6387      1.6639      1.6850    
  1.7019      1.7154      1.7269      1.7372      1.7460      1.7522      1.7545      1.7522      1.7460      1.7372    
  1.7269      1.7154      1.7019      1.6850      1.6639      1.6387      1.6106      1.5813      1.5519      1.5230    
  1.4942      1.4651      1.4355      1.4060      1.3773      1.3504      1.3257      1.3032      1.2830      1.2650    
  1.2494      1.2367      1.2273      1.2215      1.2391      1.2413      1.2477      1.2581      1.2720      1.2887    
  1.3075      1.3280      1.3504      1.3750      1.4022      1.4318      1.4633      1.4954      1.5273      1.5585    
  1.5892      1.6197      1.6498      1.6784      1.7042      1.7259      1.7434      1.7574      1.7690      1.7793    
  1.7879      1.7939      1.7960      1.7939      1.7879      1.7793      1.7690      1.7574      1.7434      1.7259    
  1.7042      1.6784      1.6498      1.6197      1.5892      1.5585      1.5273      1.4954      1.4633      1.4318    
  1.4022      1.3750      1.3504      1.3280      1.3075      1.2887      1.2720      1.2581      1.2477      1.2413    
  1.2600      1.2624      1.2694      1.2808      1.2959      1.3138      1.3336      1.3547      1.3773      1.4022    
  1.4299      1.4608      1.4942      1.5288      1.5633      1.5967      1.6289      1.6601      1.6904      1.7192    
  1.7454      1.7680      1.7865      1.8014      1.8137      1.8241      1.8325      1.8382      1.8402      1.8382    
  1.8325      1.8241      1.8137      1.8014      1.7865      1.7680      1.7454      1.7192      1.6904      1.6601    
  1.6289      1.5967      1.5633      1.5288      1.4942      1.4608      1.4299      1.4022      1.3773      1.3547    
  1.3336      1.3138      1.2959      1.2808      1.2694      1.2624      1.2820      1.2846      1.2921      1.3043    
  1.3204      1.3394      1.3602      1.3824      1.4060      1.4318      1.4608      1.4933      1.5286      1.5653    
  1.6018      1.6367      1.6697      1.7012      1.7314      1.7602      1.7869      1.8105      1.8304      1.8468    
  1.8601      1.8708      1.8791      1.8845      1.8864      1.8845      1.8791      1.8708      1.8601      1.8468    
  1.8304      1.8105      1.7869      1.7602      1.7314      1.7012      1.6697      1.6367      1.6018      1.5653    
  1.5286      1.4933      1.4608      1.4318      1.4060      1.3824      1.3602      1.3394      1.3204      1.3043    
  1.2921      1.2846      1.3053      1.3080      1.3157      1.3282      1.3449      1.3646      1.3866      1.4102    
  1.4355      1.4633      1.4942      1.5286      1.5658      1.6041      1.6418      1.6776      1.7110      1.7425    
  1.7725      1.8013      1.8285      1.8532      1.8747      1.8926      1.9071      1.9185      1.9269      1.9321    
  1.9339      1.9321      1.9269      1.9185      1.9071      1.8926      1.8747      1.8532      1.8285      1.8013    
  1.7725      1.7425      1.7110      1.6776      1.6418      1.6041      1.5658      1.5286      1.4942      1.4633    
  1.4355      1.4102      1.3866      1.3646      1.3449      1.3282      1.3157      1.3080      1.3301      1.3326    
  1.3402      1.3525      1.3691      1.3893      1.4122      1.4375      1.4651      1.4954      1.5288      1.5653    
  1.6041      1.6435      1.6820      1.7184      1.7521      1.7837      1.8138      1.8428      1.8705      1.8962    
  1.9190      1.9384      1.9540      1.9660      1.9746      1.9797      1.9815      1.9797      1.9746      1.9660    
  1.9540      1.9384      1.9190      1.8962      1.8705      1.8428      1.8138      1.7837      1.7521      1.7184    
  1.6820      1.6435      1.6041      1.5653      1.5288      1.4954      1.4651      1.4375      1.4122      1.3893    
  1.3691      1.3525      1.3402      1.3326      1.3559      1.3583      1.3654      1.3772      1.3934      1.4135    
  1.4372      1.4642      1.4942      1.5273      1.5633      1.6018      1.6418      1.6820      1.7211      1.7581    
  1.7926      1.8249      1.8557      1.8852      1.9133      1.9396      1.9632      1.9834      1.9999      2.0125    
  2.0213      2.0265      2.0282      2.0265      2.0213      2.0125      1.9999      1.9834      1.9632      1.9396    
  1.9133      1.8852      1.8557      1.8249      1.7926      1.7581      1.7211      1.6820      1.6418      1.6018    
  1.5633      1.5273      1.4942      1.4642      1.4372      1.4135      1.3934      1.3772      1.3654      1.3583    
  1.3819      1.3842      1.3909      1.4022      1.4179      1.4380      1.4623      1.4908      1.5230      1.5585    
  1.5967      1.6367      1.6776      1.7184      1.7581      1.7960      1.8319      1.8658      1.8977      1.9279    
  1.9563      1.9827      2.0064      2.0270      2.0439      2.0569      2.0660      2.0713      2.0730      2.0713    
  2.0660      2.0569      2.0439      2.0270      2.0064      1.9827      1.9563      1.9279      1.8977      1.8658    
  1.8319      1.7960      1.7581      1.7184      1.6776      1.6367      1.5967      1.5585      1.5230      1.4908    
  1.4623      1.4380      1.4179      1.4022      1.3909      1.3842      1.4068      1.4090      1.4157      1.4269    
  1.4426      1.4630      1.4881      1.5179      1.5519      1.5892      1.6289      1.6697      1.7110      1.7521    
  1.7926      1.8319      1.8698      1.9056      1.9390      1.9700      1.9984      2.0244      2.0477      2.0681    
  2.0852      2.0985      2.1078      2.1133      2.1152      2.1133      2.1078      2.0985      2.0852      2.0681    
  2.0477      2.0244      1.9984      1.9700      1.9390      1.9056      1.8698      1.8319      1.7926      1.7521    
  1.7110      1.6697      1.6289      1.5892      1.5519      1.5179      1.4881      1.4630      1.4426      1.4269    
  1.4157      1.4090      1.4293      1.4317      1.4388      1.4506      1.4672      1.4885      1.5148      1.5459    
  1.5813      1.6197      1.6601      1.7012      1.7425      1.7837      1.8249      1.8658      1.9056      1.9433    
  1.9782      2.0096      2.0378      2.0631      2.0859      2.1060      2.1230      2.1365      2.1462      2.1519    
  2.1538      2.1519      2.1462      2.1365      2.1230      2.1060      2.0859      2.0631      2.0378      2.0096    
  1.9782      1.9433      1.9056      1.8658      1.8249      1.7837      1.7425      1.7012      1.6601      1.6197    
  1.5813      1.5459      1.5148      1.4885      1.4672      1.4506      1.4388      1.4317      1.4490      1.4518    
  1.4598      1.4730      1.4910      1.5140      1.5418      1.5742      1.6106      1.6498      1.6904      1.7314    
  1.7725      1.8138      1.8557      1.8977      1.9390      1.9782      2.0138      2.0455      2.0732      2.0979    
  2.1201      2.1400      2.1570      2.1707      2.1804      2.1862      2.1881      2.1862      2.1804      2.1707    
  2.1570      2.1400      2.1201      2.0979      2.0732      2.0455      2.0138      1.9782      1.9390      1.8977    
  1.8557      1.8138      1.7725      1.7314      1.6904      1.6498      1.6106      1.5742      1.5418      1.5140    
  1.4910      1.4730      1.4598      1.4518      1.4666      1.4697      1.4789      1.4936      1.5135      1.5383    
  1.5677      1.6014      1.6387      1.6784      1.7192      1.7602      1.8013      1.8428      1.8852      1.9279    
  1.9700      2.0096      2.0455      2.0769      2.1042      2.1285      2.1505      2.1702      2.1872      2.2007    
  2.2103      2.2159      2.2177      2.2159      2.2103      2.2007      2.1872      2.1702      2.1505      2.1285    
  2.1042      2.0769      2.0455      2.0096      1.9700      1.9279      1.8852      1.8428      1.8013      1.7602    
  1.7192      1.6784      1.6387      1.6014      1.5677      1.5383      1.5135      1.4936      1.4789      1.4697    
  1.4832      1.4867      1.4967      1.5128      1.5342      1.5604      1.5911      1.6259      1.6639      1.7042    
  1.7454      1.7869      1.8285      1.8705      1.9133      1.9563      1.9984      2.0378      2.0732      2.1042    
  2.1314      2.1556      2.1775      2.1971      2.2138      2.2268      2.2357      2.2408      2.2424      2.2408    
  2.2357      2.2268      2.2138      2.1971      2.1775      2.1556      2.1314      2.1042      2.0732      2.0378    
  1.9984      1.9563      1.9133      1.8705      1.8285      1.7869      1.7454      1.7042      1.6639      1.6259    
  1.5911      1.5604      1.5342      1.5128      1.4967      1.4867      1.4997      1.5033      1.5139      1.5306    
  1.5528      1.5798      1.6112      1.6465      1.6850      1.7259      1.7680      1.8105      1.8532      1.8962    
  1.9396      1.9827      2.0244      2.0631      2.0979      2.1285      2.1556      2.1798      2.2018      2.2211    
  2.2371      2.2491      2.2570      2.2612      2.2625      2.2612      2.2570      2.2491      2.2371      2.2211    
  2.2018      2.1798      2.1556      2.1285      2.0979      2.0631      2.0244      1.9827      1.9396      1.8962    
  1.8532      1.8105      1.7680      1.7259      1.6850      1.6465      1.6112      1.5798      1.5528      1.5306    
  1.5139      1.5033      1.5160      1.5196      1.5302      1.5471      1.5693      1.5963      1.6277      1.6631    
  1.7019      1.7434      1.7865      1.8304      1.8747      1.9190      1.9632      2.0064      2.0477      2.0859    
  2.1201      2.1505      2.1775      2.2018      2.2235      2.2422      2.2571      2.2678      2.2744      2.2777    
  2.2787      2.2777      2.2744      2.2678      2.2571      2.2422      2.2235      2.2018      2.1775      2.1505    
  2.1201      2.0859      2.0477      2.0064      1.9632      1.9190      1.8747      1.8304      1.7865      1.7434    
  1.7019      1.6631      1.6277      1.5963      1.5693      1.5471      1.5302      1.5196      1.5309      1.5345    
  1.5449      1.5616      1.5836      1.6103      1.6414      1.6766      1.7154      1.7574      1.8014      1.8468    
  1.8926      1.9384      1.9834      2.0270      2.0681      2.1060      2.1400      2.1702      2.1971      2.2211    
  2.2422      2.2598      2.2735      2.2829      2.2885      2.2912      2.2920      2.2912      2.2885      2.2829    
  2.2735      2.2598      2.2422      2.2211      2.1971      2.1702      2.1400      2.1060      2.0681      2.0270    
  1.9834      1.9384      1.8926      1.8468      1.8014      1.7574      1.7154      1.6766      1.6414      1.6103    
  1.5836      1.5616      1.5449      1.5345      1.5427      1.5463      1.5568      1.5735      1.5955      1.6222    
  1.6531      1.6881      1.7269      1.7690      1.8137      1.8601      1.9071      1.9540      1.9999      2.0439    
  2.0852      2.1230      2.1570      2.1872      2.2138      2.2371      2.2571      2.2735      2.2860      2.2946    
  2.2998      2.3024      2.3031      2.3024      2.2998      2.2946      2.2860      2.2735      2.2571      2.2371    
  2.2138      2.1872      2.1570      2.1230      2.0852      2.0439      1.9999      1.9540      1.9071      1.8601    
  1.8137      1.7690      1.7269      1.6881      1.6531      1.6222      1.5955      1.5735      1.5568      1.5463    
  1.5505      1.5543      1.5651      1.5823      1.6050      1.6322      1.6634      1.6985      1.7372      1.7793    
  1.8241      1.8708      1.9185      1.9660      2.0125      2.0569      2.0985      2.1365      2.1707      2.2007    
  2.2268      2.2491      2.2678      2.2829      2.2946      2.3030      2.3085      2.3115      2.3125      2.3115    
  2.3085      2.3030      2.2946      2.2829      2.2678      2.2491      2.2268      2.2007      2.1707      2.1365    
  2.0985      2.0569      2.0125      1.9660      1.9185      1.8708      1.8241      1.7793      1.7372      1.6985    
  1.6634      1.6322      1.6050      1.5823      1.5651      1.5543      1.5546      1.5585      1.5700      1.5881    
  1.6118      1.6400      1.6719      1.7073      1.7460      1.7879      1.8325      1.8791      1.9269      1.9746    
  2.0213      2.0660      2.1078      2.1462      2.1804      2.2103      2.2357      2.2570      2.2744      2.2885    
  2.2998      2.3085      2.3148      2.3186      2.3198      2.3186      2.3148      2.3085      2.2998      2.2885    
  2.2744      2.2570      2.2357      2.2103      2.1804      2.1462      2.1078      2.0660      2.0213      1.9746    
  1.9269      1.8791      1.8325      1.7879      1.7460      1.7073      1.6719      1.6400      1.6118      1.5881    
  1.5700      1.5585      1.5560      1.5601      1.5722      1.5913      1.6159      1.6451      1.6777      1.7135    
  1.7522      1.7939      1.8382      1.8845      1.9321      1.9797      2.0265      2.0713      2.1133      2.1519    
  2.1862      2.2159      2.2408      2.2612      2.2777      2.2912      2.3024      2.3115      2.3186      2.3231    
  2.3246      2.3231      2.3186      2.3115      2.3024      2.2912      2.2777      2.2612      2.2408      2.2159    
  2.1862      2.1519      2.1133      2.0713      2.0265      1.9797      1.9321      1.8845      1.8382      1.7939    
  1.7522      1.7135      1.6777      1.6451      1.6159      1.5913      1.5722      1.5601      1.5563      1.5605    
  1.5728      1.5922      1.6173      1.6468      1.6798      1.7157      1.7545      1.7960      1.8402      1.8864    
  1.9339      1.9815      2.0282      2.0730      2.1152      2.1538      2.1881      2.2177      2.2424      2.2625    
  2.2787      2.2920      2.3031      2.3125      2.3198      2.3246      2.3263      2.3246      2.3198      2.3125    
  2.3031      2.2920      2.2787      2.2625      2.2424      2.2177      2.1881      2.1538      2.1152      2.0730    
  2.0282      1.9815      1.9339      1.8864      1.8402      1.7960      1.7545      1.7157      1.6798      1.6468    
  1.6173      1.5922      1.5728      1.5605      1.5560      1.5601      1.5722      1.5913      1.6159      1.6451    
  1.6777      1.7135      1.7522      1.7939      1.8382      1.8845      1.9321      1.9797      2.0265      2.0713    
  2.1133      2.1519      2.1862      2.2159      2.2408      2.2612      2.2777      2.2912      2.3024      2.3115    
  2.3186      2.3231      2.3246      2.3231      2.3186      2.3115      2.3024      2.2912      2.2777      2.2612    
  2.2408      2.2159      2.1862      2.1519      2.1133      2.0713      2.0265      1.9797      1.9321      1.8845    
  1.8382      1.7939      1.7522      1.7135      1.6777      1.6451      1.6159      1.5913      1.5722      1.5601    
  1.5546      1.5585      1.5700      1.5881      1.6118      1.6400      1.6719      1.7073      1.7460      1.7879    
  1.8325      1.8791      1.9269      1.9746      2.0213      2.0660      2.1078      2.1462      2.1804      2.2103    
  2.2357      2.2570      2.2744      2.2885      2.2998      2.3085      2.3148      2.3186      2.3198      2.3186    
  2.3148      2.3085      2.2998      2.2885      2.2744      2.2570      2.2357      2.2103      2.1804      2.1462    
  2.1078      2.0660      2.0213      1.9746      1.9269      1.8791      1.8325      1.7879      1.7460      1.7073    
  1.6719      1.6400      1.6118      1.5881      1.5700      1.5585      1.5505      1.5543      1.5651      1.5823    
  1.6050      1.6322      1.6634      1.6985      1.7372      1.7793      1.8241      1.8708      1.9185      1.9660    
  2.0125      2.0569      2.0985      2.1365      2.1707      2.2007      2.2268      2.2491      2.2678      2.2829    
  2.2946      2.3030      2.3085      2.3115      2.3125      2.3115      2.3085      2.3030      2.2946      2.2829    
  2.2678      2.2491      2.2268      2.2007      2.1707      2.1365      2.0985      2.0569      2.0125      1.9660    
  1.9185      1.8708      1.8241      1.7793      1.7372      1.6985      1.6634      1.6322      1.6050      1.5823    
  1.5651      1.5543      1.5427      1.5463      1.5568      1.5735      1.5955      1.6222      1.6531      1.6881    
  1.7269      1.7690      1.8137      1.8601      1.9071      1.9540      1.9999      2.0439      2.0852      2.1230    
  2.1570      2.1872      2.2138      2.2371      2.2571      2.2735      2.2860      2.2946      2.2998      2.3024    
  2.3031      2.3024      2.2998      2.2946      2.2860      2.2735      2.2571      2.2371      2.2138      2.1872    
  2.1570      2.1230      2.0852      2.0439      1.9999      1.9540      1.9071      1.8601      1.8137      1.7690    
  1.7269      1.6881      1.6531      1.6222      1.5955      1.5735      1.5568      1.5463      1.5309      1.5345    
  1.5449      1.5616      1.5836      1.6103      1.6414      1.6766      1.7154      1.7574      1.8014      1.8468    
  1.8926      1.9384      1.9834      2.0270      2.0681      2.1060      2.1400      2.1702      2.1971      2.2211    
  2.2422      2.2598      2.2735      2.2829      2.2885      2.2912      2.2920      2.2912      2.2885      2.2829    
  2.2735      2.2598      2.2422      2.2211      2.1971      2.1702      2.1400      2.1060      2.0681      2.0270    
  1.9834      1.9384      1.8926      1.8468      1.8014      1.7574      1.7154      1.6766      1.6414      1.6103    
  1.5836      1.5616      1.5449      1.5345      1.5160      1.5196      1.5302      1.5471      1.5693      1.5963    
  1.6277      1.6631      1.7019      1.7434      1.7865      1.8304      1.8747      1.9190      1.9632      2.0064    
  2.0477      2.0859      2.1201      2.1505      2.1775      2.2018      2.2235      2.2422      2.2571      2.2678    
  2.2744      2.2777      2.2787      2.2777      2.2744      2.2678      2.2571      2.2422      2.2235      2.2018    
  2.1775      2.1505      2.1201      2.0859      2.0477      2.0064      1.9632      1.9190      1.8747      1.8304    
  1.7865      1.7434      1.7019      1.6631      1.6277      1.5963      1.5693      1.5471      1.5302      1.5196    
  1.4997      1.5033      1.5139      1.5306      1.5528      1.5798      1.6112      1.6465      1.6850      1.7259    
  1.7680      1.8105      1.8532      1.8962      1.9396      1.9827      2.0244      2.0631      2.0979      2.1285    
  2.1556      2.1798      2.2018      2.2211      2.2371      2.2491      2.2570      2.2612      2.2625      2.2612    
  2.2570      2.2491      2.2371      2.2211      2.2018      2.1798      2.1556      2.1285      2.0979      2.0631    
  2.0244      1.9827      1.9396      1.8962      1.8532      1.8105      1.7680      1.7259      1.6850      1.6465    
  1.6112      1.5798      1.5528      1.5306      1.5139      1.5033      1.4832      1.4867      1.4967      1.5128    
  1.5342      1.5604      1.5911      1.6259      1.6639      1.7042      1.7454      1.7869      1.8285      1.8705    
  1.9133      1.9563      1.9984      2.0378      2.0732      2.1042      2.1314      2.1556      2.1775      2.1971    
  2.2138      2.2268      2.2357      2.2408      2.2424      2.2408      2.2357      2.2268      2.2138      2.1971    
  2.1775      2.1556      2.1314      2.1042      2.0732      2.0378      1.9984      1.9563      1.9133      1.8705    
  1.8285      1.7869      1.7454      1.7042      1.6639      1.6259      1.5911      1.5604      1.5342      1.5128    
  1.4967      1.4867      1.4666      1.4697      1.4789      1.4936      1.5135      1.5383      1.5677      1.6014    
  1.6387      1.6784      1.7192      1.7602      1.8013      1.8428      1.8852      1.9279      1.9700      2.0096    
  2.0455      2.0769      2.1042      2.1285      2.1505      2.1702      2.1872      2.2007      2.2103      2.2159    
  2.2177      2.2159      2.2103      2.2007      2.1872      2.1702      2.1505      2.1285      2.1042      2.0769    
  2.0455      2.0096      1.9700      1.9279      1.8852      1.8428      1.8013      1.7602      1.7192      1.6784    
  1.6387      1.6014      1.5677      1.5383      1.5135      1.4936      1.4789      1.4697      1.4490      1.4518    
  1.4598      1.4730      1.4910      1.5140      1.5418      1.5742      1.6106      1.6498      1.6904      1.7314    
  1.7725      1.8138      1.8557      1.8977      1.9390      1.9782      2.0138      2.0455      2.0732      2.0979    
  2.1201      2.1400      2.1570      2.1707      2.1804      2.1862      2.1881      2.1862      2.1804      2.1707    
  2.1570      2.1400      2.1201      2.0979      2.0732      2.0455      2.0138      1.9782      1.9390      1.8977    
  1.8557      1.8138      1.7725      1.7314      1.6904      1.6498      1.6106      1.5742      1.5418      1.5140    
  1.4910      1.4730      1.4598      1.4518      1.4293      1.4317      1.4388      1.4506      1.4672      1.4885    
  1.5148      1.5459      1.5813      1.6197      1.6601      1.7012      1.7425      1.7837      1.8249      1.8658    
  1.9056      1.9433      1.9782      2.0096      2.0378      2.0631      2.0859      2.1060      2.1230      2.1365    
  2.1462      2.1519      2.1538      2.1519      2.1462      2.1365      2.1230      2.1060      2.0859      2.0631    
  2.0378      2.0096      1.9782      1.9433      1.9056      1.8658      1.8249      1.7837      1.7425      1.7012    
  1.6601      1.6197      1.5813      1.5459      1.5148      1.4885      1.4672      1.4506      1.4388      1.4317    
  1.4068      1.4090      1.4157      1.4269      1.4426      1.4630      1.4881      1.5179      1.5519      1.5892    
  1.6289      1.6697      1.7110      1.7521      1.7926      1.8319      1.8698      1.9056      1.9390      1.9700    
  1.9984      2.0244      2.0477      2.0681      2.0852      2.0985      2.1078      2.1133      2.1152      2.1133    
  2.1078      2.0985      2.0852      2.0681      2.0477      2.0244      1.9984      1.9700      1.9390      1.9056    
  1.8698      1.8319      1.7926      1.7521      1.7110      1.6697      1.6289      1.5892      1.5519      1.5179    
  1.4881      1.4630      1.4426      1.4269      1.4157      1.4090      1.3819      1.3842      1.3909      1.4022    
  1.4179      1.4380      1.4623      1.4908      1.5230      1.5585      1.5967      1.6367      1.6776      1.7184    
  1.7581      1.7960      1.8319      1.8658      1.8977      1.9279      1.9563      1.9827      2.0064      2.0270    
  2.0439      2.0569      2.0660      2.0713      2.0730      2.0713      2.0660      2.0569      2.0439      2.0270    
  2.0064      1.9827      1.9563      1.9279      1.8977      1.8658      1.8319      1.7960      1.7581      1.7184    
  1.6776      1.6367      1.5967      1.5585      1.5230      1.4908      1.4623      1.4380      1.4179      1.4022    
  1.3909      1.3842      1.3559      1.3583      1.3654      1.3772      1.3934      1.4135      1.4372      1.4642    
  1.4942      1.5273      1.5633      1.6018      1.6418      1.6820      1.7211      1.7581      1.7926      1.8249    
  1.8557      1.8852      1.9133      1.9396      1.9632      1.9834      1.9999      2.0125      2.0213      2.0265    
  2.0282      2.0265      2.0213      2.0125      1.9999      1.9834      1.9632      1.9396      1.9133      1.8852    
  1.8557      1.8249      1.7926      1.7581      1.7211      1.6820      1.6418      1.6018      1.5633      1.5273    
  1.4942      1.4642      1.4372      1.4135      1.3934      1.3772      1.3654      1.3583      1.3301      1.3326    
  1.3402      1.3525      1.3691      1.3893      1.4122      1.4375      1.4651      1.4954      1.5288      1.5653    
  1.6041      1.6435      1.6820      1.7184      1.7521      1.7837      1.8138      1.8428      1.8705      1.8962    
  1.9190      1.9384      1.9540      1.9660      1.9746      1.9797      1.9815      1.9797      1.9746      1.9660    