Screening bandgap                       
   1.00000000000000     
     6.350000    0.000000    0.000000
     0.000000    6.350000    0.000000
     0.000000    0.000000    6.350000
   C    H 
     1     4
Direct
  0.500000  0.500000  0.500000
  0.400987  0.400987  0.400987
  0.599013  0.599013  0.400987
  0.400987  0.599013  0.599013
  0.599013  0.400987  0.599013
 
   56   56   56
 0.89886E-04 0.19970E-03 0.36227E-03 0.29795E-03 0.66305E-04 -.38875E-04 0.62451E-04 0.14850E-03 0.60659E-04 -.72444E-04
 -.49356E-04 0.14154E-03 0.37260E-03 0.55131E-03 0.62980E-03 0.55290E-03 0.33460E-03 0.12131E-03 0.49259E-04 0.76518E-04
 0.69638E-04 0.14681E-04 0.98172E-05 0.70989E-04 0.96758E-04 0.46142E-04 0.78769E-05 0.41656E-04 0.78743E-04 0.54171E-04
 0.23780E-04 0.53996E-04 0.91128E-04 0.56059E-04 -.39572E-05 0.11428E-04 0.79017E-04 0.91869E-04 0.58312E-04 0.11185E-03
 0.30016E-03 0.49661E-03 0.56460E-03 0.49543E-03 0.34130E-03 0.13886E-03 -.33438E-04 -.56736E-04 0.59641E-04 0.12656E-03
 0.30073E-04 -.63523E-04 0.63468E-04 0.31794E-03 0.39242E-03 0.22140E-03 0.15994E-03 0.35009E-03 0.40339E-03 0.21117E-03
 -.10699E-04 -.11933E-04 0.13996E-03 0.17490E-03 0.23120E-04 -.97264E-04 -.73500E-05 0.20100E-03 0.33105E-03 0.33158E-03
 0.27481E-03 0.19418E-03 0.81787E-04 -.77189E-05 0.81467E-05 0.10378E-03 0.15777E-03 0.11810E-03 0.60968E-04 0.59306E-04
 0.81807E-04 0.67649E-04 0.28070E-04 0.14157E-04 0.33605E-04 0.57753E-04 0.75283E-04 0.84786E-04 0.65421E-04 0.12165E-04
 -.23873E-04 0.90957E-05 0.82420E-04 0.12309E-03 0.12539E-03 0.16278E-03 0.27961E-03 0.42544E-03 0.51056E-03 0.48131E-03
 0.33755E-03 0.13585E-03 -.13933E-04 -.27336E-04 0.48699E-04 0.77454E-04 0.16966E-04 -.19148E-04 0.54142E-04 0.14397E-03
 0.12784E-03 0.76234E-04 0.26636E-03 0.34674E-03 0.26230E-03 0.10600E-03 0.59424E-04 0.16985E-03 0.27641E-03 0.21086E-03
 0.25852E-04 -.61257E-04 0.54246E-04 0.23516E-03 0.28561E-03 0.18296E-03 0.56306E-04 -.69145E-05 -.27525E-04 -.22024E-04
 0.54534E-04 0.20192E-03 0.30214E-03 0.24486E-03 0.86495E-04 -.75023E-05 0.26841E-04 0.85650E-04 0.61015E-04 -.10333E-04
 -.16998E-04 0.61839E-04 0.13470E-03 0.12617E-03 0.60546E-04 0.82234E-05 0.19138E-05 0.29884E-04 0.73248E-04 0.11607E-03
 0.14042E-03 0.14585E-03 0.16481E-03 0.22663E-03 0.30513E-03 0.33049E-03 0.26478E-03 0.14761E-03 0.53721E-04 0.19042E-04
 0.23511E-04 0.34254E-04 0.38700E-04 0.32653E-04 0.71308E-05 -.25662E-04 -.10159E-04 0.10245E-03 0.21566E-03 0.15709E-03
 0.89937E-04 0.13827E-03 0.28753E-03 0.40818E-03 0.39059E-03 0.24342E-03 0.91527E-04 0.79513E-04 0.23212E-03 0.40186E-03
 0.40553E-03 0.22676E-03 0.28920E-04 -.46442E-04 -.14837E-04 0.53862E-04 0.16912E-03 0.34583E-03 0.46830E-03 0.38501E-03
 0.14460E-03 -.94023E-05 0.62434E-04 0.21880E-03 0.24334E-03 0.12936E-03 0.43300E-04 0.66267E-04 0.11266E-03 0.97728E-04
 0.52517E-04 0.35509E-04 0.36746E-04 0.29243E-04 0.36233E-04 0.78429E-04 0.11239E-03 0.93769E-04 0.60695E-04 0.80133E-04
 0.13929E-03 0.16576E-03 0.13966E-03 0.10842E-03 0.94287E-04 0.68708E-04 0.30115E-04 0.23848E-04 0.52741E-04 0.47148E-04
 -.21595E-04 -.64755E-04 0.10329E-04 0.15182E-03 0.52871E-04 -.15477E-04 0.59812E-04 0.28580E-03 0.48711E-03 0.51075E-03
 0.37623E-03 0.21928E-03 0.17164E-03 0.29992E-03 0.55779E-03 0.76169E-03 0.71289E-03 0.41151E-03 0.84949E-04 -.50577E-04
 0.13841E-04 0.17305E-03 0.38431E-03 0.62443E-03 0.75408E-03 0.62035E-03 0.31329E-03 0.14676E-03 0.29926E-03 0.59068E-03
 0.70880E-03 0.56500E-03 0.32031E-03 0.13773E-03 0.46228E-04 0.18405E-04 0.38518E-04 0.69206E-04 0.58502E-04 0.17868E-04
 0.13758E-04 0.54742E-04 0.71205E-04 0.40273E-04 0.36476E-04 0.99892E-04 0.14458E-03 0.86159E-04 -.98707E-05 -.15746E-04
 0.65911E-04 0.11477E-03 0.81060E-04 0.37950E-04 0.35718E-04 0.28855E-04 -.83635E-05 -.10974E-04 0.56273E-04 0.10488E-03
 -.15660E-04 0.52391E-05 0.16977E-03 0.39391E-03 0.49784E-03 0.41210E-03 0.24138E-03 0.14184E-03 0.21183E-03 0.47337E-03
 0.84226E-03 0.11024E-02 0.10352E-02 0.64949E-03 0.21625E-03 0.21817E-04 0.14079E-03 0.47604E-03 0.90127E-03 0.12633E-02
 0.13548E-02 0.10798E-02 0.65656E-03 0.48701E-03 0.74553E-03 0.11812E-02 0.13881E-02 0.11991E-02 0.76333E-03 0.33434E-03
 0.77940E-04 0.27328E-04 0.10120E-03 0.16095E-03 0.12892E-03 0.57284E-04 0.32103E-04 0.42199E-04 0.24562E-04 0.71641E-05
 0.80094E-04 0.21199E-03 0.23488E-03 0.81104E-04 -.81856E-04 -.60718E-04 0.10063E-03 0.19361E-03 0.13267E-03 0.31577E-04
 0.23456E-05 0.20828E-04 0.26088E-04 0.26356E-04 0.39027E-04 0.27264E-04 0.60595E-04 0.12996E-03 0.24925E-03 0.35392E-03
 0.34686E-03 0.22773E-03 0.10385E-03 0.81417E-04 0.20588E-03 0.48237E-03 0.85417E-03 0.11498E-02 0.11625E-02 0.85924E-03
 0.46989E-03 0.31625E-03 0.56812E-03 0.11589E-02 0.18466E-02 0.23057E-02 0.22750E-02 0.17770E-02 0.11951E-02 0.99708E-03
 0.13069E-02 0.17899E-02 0.19854E-02 0.17093E-02 0.11319E-02 0.56481E-03 0.23458E-03 0.18601E-03 0.29358E-03 0.36576E-03
 0.30267E-03 0.16239E-03 0.53356E-04 0.31296E-05 -.15496E-04 0.14791E-04 0.12364E-03 0.23938E-03 0.23462E-03 0.11868E-03
 0.66213E-04 0.18099E-03 0.32850E-03 0.30912E-03 0.13218E-03 -.85423E-05 -.49482E-05 0.53868E-04 0.53567E-04 0.96882E-05
 -.38541E-05 0.21980E-04 0.11924E-03 0.14254E-03 0.17065E-03 0.19910E-03 0.17952E-03 0.11186E-03 0.62837E-04 0.84391E-04
 0.17811E-03 0.34774E-03 0.60592E-03 0.88937E-03 0.10429E-02 0.97487E-03 0.81718E-03 0.86564E-03 0.13310E-02 0.21416E-02
 0.29582E-02 0.33692E-02 0.31550E-02 0.24715E-02 0.17874E-02 0.15423E-02 0.17858E-02 0.21526E-02 0.22114E-02 0.18260E-02
 0.11998E-02 0.64773E-03 0.37060E-03 0.37807E-03 0.52426E-03 0.60614E-03 0.50170E-03 0.25916E-03 0.37861E-04 -.47324E-04
 -.96213E-05 0.63900E-04 0.10610E-03 0.11025E-03 0.12669E-03 0.22919E-03 0.43102E-03 0.61336E-03 0.60118E-03 0.36201E-03
 0.80795E-04 -.30785E-04 0.31461E-04 0.95287E-04 0.55019E-04 -.15751E-04 -.91409E-05 0.62689E-04 0.48790E-04 0.11308E-04
 0.89153E-05 0.63957E-04 0.12894E-03 0.15598E-03 0.15065E-03 0.14326E-03 0.15041E-03 0.19666E-03 0.33443E-03 0.58550E-03
 0.87734E-03 0.11071E-02 0.12936E-02 0.16119E-02 0.22165E-02 0.30250E-02 0.37060E-02 0.39051E-02 0.35145E-02 0.27689E-02
 0.20955E-02 0.18185E-02 0.19287E-02 0.21110E-02 0.20226E-02 0.15779E-02 0.98425E-03 0.53247E-03 0.37460E-03 0.46653E-03
 0.64167E-03 0.71163E-03 0.56796E-03 0.26805E-03 0.10385E-04 -.44226E-04 0.56880E-04 0.11557E-03 0.31619E-04 -.57122E-04
 0.66673E-04 0.42325E-03 0.77425E-03 0.85074E-03 0.61179E-03 0.26237E-03 0.40451E-04 0.12203E-04 0.66835E-04 0.75839E-04
 0.25588E-04 -.81802E-05 0.16982E-04 0.55676E-04 -.53924E-04 -.80176E-04 -.50704E-04 0.75193E-04 0.26468E-03 0.39804E-03
 0.38542E-03 0.26545E-03 0.15157E-03 0.12809E-03 0.24615E-03 0.55875E-03 0.10642E-02 0.16380E-02 0.21261E-02 0.25201E-02
 0.29447E-02 0.34282E-02 0.37679E-02 0.37014E-02 0.31852E-02 0.24604E-02 0.18629E-02 0.15970E-02 0.16302E-02 0.17306E-02
 0.16286E-02 0.12321E-02 0.71613E-03 0.36484E-03 0.31293E-03 0.45969E-03 0.60478E-03 0.60873E-03 0.44526E-03 0.19652E-03
 0.19736E-04 0.23476E-04 0.12615E-03 0.12406E-03 -.28899E-04 -.99833E-04 0.14292E-03 0.57967E-03 0.82422E-03 0.67222E-03
 0.32221E-03 0.95536E-04 0.68698E-04 0.87385E-04 0.44703E-04 -.79846E-05 -.39050E-05 0.27536E-04 0.26963E-04 -.99616E-05
 -.42102E-04 -.42667E-05 0.57167E-04 0.23908E-03 0.55012E-03 0.78904E-03 0.75221E-03 0.48718E-03 0.23061E-03 0.17613E-03
 0.42075E-03 0.10323E-02 0.19582E-02 0.28859E-02 0.34165E-02 0.34624E-02 0.33247E-02 0.32911E-02 0.32884E-02 0.30428E-02
 0.24755E-02 0.18007E-02 0.12934E-02 0.10888E-02 0.11587E-02 0.13331E-02 0.13556E-02 0.10729E-02 0.62169E-03 0.31749E-03
 0.31300E-03 0.45403E-03 0.50387E-03 0.40135E-03 0.24193E-03 0.11624E-03 0.60660E-04 0.81586E-04 0.12509E-03 0.91617E-04
 -.11403E-04 -.46767E-05 0.23296E-03 0.52231E-03 0.55297E-03 0.29518E-03 0.51589E-04 0.45012E-04 0.14559E-03 0.12213E-03
 -.60722E-05 -.49918E-04 0.25181E-04 0.69485E-04 0.11818E-04 -.50432E-04 0.92057E-04 0.14970E-03 0.20209E-03 0.40960E-03
 0.79915E-03 0.11215E-02 0.11069E-02 0.77541E-03 0.41913E-03 0.38066E-03 0.91151E-03 0.20630E-02 0.35093E-02 0.45768E-02
 0.47263E-02 0.40750E-02 0.32784E-02 0.28426E-02 0.26931E-02 0.24597E-02 0.19887E-02 0.14431E-02 0.10506E-02 0.93446E-03
 0.11037E-02 0.14114E-02 0.15530E-02 0.13076E-02 0.81413E-03 0.45332E-03 0.40942E-03 0.49021E-03 0.43550E-03 0.24654E-03
 0.10128E-03 0.72249E-04 0.82277E-04 0.72555E-04 0.62242E-04 0.62848E-04 0.62697E-04 0.89296E-04 0.17040E-03 0.23780E-03
 0.19323E-03 0.78161E-04 0.44900E-04 0.12768E-03 0.18218E-03 0.11477E-03 0.31691E-04 0.57289E-04 0.12764E-03 0.10772E-03
 0.24656E-04 0.15288E-04 0.25669E-03 0.22772E-03 0.22657E-03 0.41362E-03 0.78529E-03 0.11331E-02 0.12186E-02 0.98818E-03
 0.68501E-03 0.79011E-03 0.17250E-02 0.34108E-02 0.51008E-02 0.58461E-02 0.52930E-02 0.39947E-02 0.28693E-02 0.24009E-02
 0.24121E-02 0.24754E-02 0.23528E-02 0.20703E-02 0.17955E-02 0.17341E-02 0.19881E-02 0.23742E-02 0.24808E-02 0.20608E-02
 0.13340E-02 0.76774E-03 0.57179E-03 0.54578E-03 0.42545E-03 0.21056E-03 0.68751E-04 0.52842E-04 0.62265E-04 0.32731E-04
 0.16595E-04 0.58653E-04 0.10318E-03 0.77009E-04 0.18065E-05 -.32789E-04 0.17902E-04 0.10772E-03 0.15927E-03 0.14736E-03
 0.12254E-03 0.15187E-03 0.23140E-03 0.27638E-03 0.22633E-03 0.13955E-03 0.12845E-03 0.20380E-03 0.38722E-03 0.20670E-03
 0.12917E-03 0.23723E-03 0.48087E-03 0.77747E-03 0.99852E-03 0.10155E-02 0.96540E-03 0.13664E-02 0.26535E-02 0.45109E-02
 0.59010E-02 0.59557E-02 0.47807E-02 0.32893E-02 0.23604E-02 0.22734E-02 0.27916E-02 0.34857E-02 0.39449E-02 0.39576E-02
 0.36894E-02 0.35724E-02 0.38366E-02 0.41810E-02 0.40499E-02 0.32392E-02 0.21165E-02 0.12250E-02 0.78125E-03 0.60922E-03
 0.45766E-03 0.26002E-03 0.99766E-04 0.35328E-04 0.30246E-04 0.27895E-04 0.25887E-04 0.45011E-04 0.61541E-04 0.32527E-04
 -.10645E-04 0.28265E-04 0.15905E-03 0.23582E-03 0.13892E-03 -.12568E-04 0.29088E-04 0.29455E-03 0.50965E-03 0.44404E-03
 0.22578E-03 0.16211E-03 0.31854E-03 0.45665E-03 0.45080E-03 0.15984E-03 0.28778E-04 0.41118E-04 0.12063E-03 0.31978E-03
 0.64233E-03 0.94717E-03 0.12634E-02 0.19727E-02 0.33217E-02 0.48263E-02 0.55330E-02 0.49747E-02 0.36497E-02 0.25002E-02
 0.21551E-02 0.27334E-02 0.40191E-02 0.55152E-02 0.65362E-02 0.66739E-02 0.62306E-02 0.59213E-02 0.60508E-02 0.61722E-02
 0.56504E-02 0.43901E-02 0.28830E-02 0.16810E-02 0.98531E-03 0.66766E-03 0.49769E-03 0.32151E-03 0.13170E-03 0.16350E-04
 0.16859E-04 0.55276E-04 0.38982E-04 -.86992E-05 0.11696E-04 0.14175E-03 0.33531E-03 0.51184E-03 0.56168E-03 0.37753E-03
 0.23943E-04 -.18251E-03 0.28591E-04 0.48397E-03 0.69077E-03 0.45015E-03 0.13220E-03 0.17407E-03 0.49305E-03 0.64546E-03
 0.40502E-03 0.11364E-03 -.74995E-05 -.33816E-04 -.44345E-04 0.89880E-04 0.48210E-03 0.10408E-02 0.16816E-02 0.25082E-02
 0.35283E-02 0.43363E-02 0.43979E-02 0.36681E-02 0.27161E-02 0.22355E-02 0.26160E-02 0.39208E-02 0.59075E-02 0.79252E-02
 0.91295E-02 0.91513E-02 0.84802E-02 0.79286E-02 0.77412E-02 0.74346E-02 0.64843E-02 0.49281E-02 0.32511E-02 0.19072E-02
 0.10681E-02 0.66300E-03 0.48399E-03 0.32037E-03 0.12081E-03 -.13570E-05 0.18068E-04 0.61480E-04 0.60256E-05 -.53906E-04
 0.95616E-04 0.49456E-03 0.93040E-03 0.11374E-02 0.98591E-03 0.53586E-03 0.44472E-04 -.13007E-03 0.15715E-03 0.59340E-03
 0.68452E-03 0.35158E-03 0.49751E-04 0.16906E-03 0.52314E-03 0.64117E-03 0.25299E-03 0.45685E-04 -.14793E-04 -.51633E-05
 0.14402E-04 0.19776E-03 0.71617E-03 0.15009E-02 0.23167E-02 0.29913E-02 0.34388E-02 0.35536E-02 0.32801E-02 0.28008E-02
 0.25216E-02 0.28321E-02 0.39169E-02 0.57078E-02 0.78346E-02 0.96418E-02 0.10516E-01 0.10366E-01 0.96865E-02 0.90235E-02
 0.84389E-02 0.76020E-02 0.62975E-02 0.46843E-02 0.31074E-02 0.18371E-02 0.99730E-03 0.56870E-03 0.38497E-03 0.24191E-03
 0.84105E-04 0.47807E-05 0.30254E-04 0.38050E-04 -.25493E-04 0.20234E-04 0.37956E-03 0.95879E-03 0.14024E-02 0.14412E-02
 0.11010E-02 0.60334E-03 0.20225E-03 0.93943E-04 0.29678E-03 0.56157E-03 0.56358E-03 0.28036E-03 0.47683E-04 0.13189E-03
 0.37909E-03 0.44312E-03 0.94415E-04 -.16930E-04 -.15682E-04 0.52593E-04 0.17816E-03 0.53948E-03 0.12953E-02 0.22878E-02
 0.31055E-02 0.34466E-02 0.33293E-02 0.29814E-02 0.26661E-02 0.26463E-02 0.31674E-02 0.43291E-02 0.59648E-02 0.76980E-02
 0.91359E-02 0.10044E-01 0.10412E-01 0.10397E-01 0.10150E-01 0.96486E-02 0.87412E-02 0.73740E-02 0.57388E-02 0.41430E-02
 0.27851E-02 0.17150E-02 0.94771E-03 0.49633E-03 0.29667E-03 0.21468E-03 0.16241E-03 0.13160E-03 0.10553E-03 0.52251E-04
 0.48643E-04 0.27682E-03 0.77708E-03 0.12826E-02 0.14413E-02 0.11828E-02 0.75340E-03 0.41467E-03 0.24277E-03 0.21581E-03
 0.31409E-03 0.45210E-03 0.46190E-03 0.28272E-03 0.83703E-04 0.61629E-04 0.17225E-03 0.20561E-03 0.29285E-04 -.73551E-05
 0.41555E-04 0.15189E-03 0.38618E-03 0.96709E-03 0.19837E-02 0.31072E-02 0.37898E-02 0.37626E-02 0.32367E-02 0.26681E-02
 0.24887E-02 0.30357E-02 0.44528E-02 0.64567E-02 0.83303E-02 0.94097E-02 0.96570E-02 0.96663E-02 0.10055E-01 0.10868E-01
 0.11549E-01 0.11405E-01 0.10134E-01 0.80311E-02 0.57719E-02 0.39425E-02 0.26959E-02 0.18227E-02 0.11166E-02 0.59985E-03
 0.39000E-03 0.45126E-03 0.56642E-03 0.53489E-03 0.34749E-03 0.18403E-03 0.26518E-03 0.65294E-03 0.11346E-02 0.13469E-02
 0.11044E-02 0.59487E-03 0.18269E-03 0.41915E-04 0.72747E-04 0.14390E-03 0.25180E-03 0.39151E-03 0.43808E-03 0.29745E-03
 0.84097E-04 -.58111E-05 0.43157E-04 0.77747E-04 0.37058E-04 0.69938E-04 0.17603E-03 0.32110E-03 0.62031E-03 0.13276E-02
 0.24616E-02 0.35714E-02 0.40653E-02 0.37551E-02 0.29901E-02 0.23600E-02 0.24320E-02 0.36245E-02 0.59222E-02 0.85581E-02
 0.10308E-01 0.10517E-01 0.98535E-02 0.98150E-02 0.11326E-01 0.13847E-01 0.15815E-01 0.15850E-01 0.13669E-01 0.10133E-01
 0.66083E-02 0.41123E-02 0.27813E-02 0.20552E-02 0.13998E-02 0.82672E-03 0.67359E-03 0.99098E-03 0.13463E-02 0.12823E-02
 0.83100E-03 0.46040E-03 0.55325E-03 0.10170E-02 0.13966E-02 0.13142E-02 0.79314E-03 0.18959E-03 -.15627E-03 -.18286E-03
 -.42452E-04 0.13548E-03 0.32227E-03 0.46800E-03 0.45782E-03 0.26605E-03 0.49217E-04 -.24668E-04 0.21384E-04 0.50826E-04
 0.31320E-04 0.12599E-03 0.28239E-03 0.45224E-03 0.75580E-03 0.14272E-02 0.24663E-02 0.34455E-02 0.38095E-02 0.33782E-02
 0.25211E-02 0.19307E-02 0.23103E-02 0.40761E-02 0.69637E-02 0.98346E-02 0.11295E-01 0.10990E-01 0.10302E-01 0.11351E-01
 0.15000E-01 0.19804E-01 0.22993E-01 0.22530E-01 0.18452E-01 0.12603E-01 0.72984E-02 0.39545E-02 0.25209E-02 0.19720E-02
 0.14247E-02 0.87614E-03 0.86689E-03 0.15314E-02 0.22283E-02 0.22166E-02 0.15120E-02 0.84810E-03 0.82693E-03 0.13061E-02
 0.16626E-02 0.14859E-02 0.89574E-03 0.29175E-03 -.33745E-04 -.33025E-04 0.18787E-03 0.47654E-03 0.67722E-03 0.67493E-03
 0.47040E-03 0.20092E-03 0.32000E-04 0.62172E-05 0.29955E-04 0.24034E-04 0.32118E-05 0.10761E-03 0.23939E-03 0.38282E-03
 0.63659E-03 0.11675E-02 0.20023E-02 0.28447E-02 0.32010E-02 0.28119E-02 0.19883E-02 0.15044E-02 0.21432E-02 0.42115E-02
 0.72263E-02 0.99746E-02 0.11245E-01 0.11040E-01 0.11132E-01 0.13860E-01 0.19792E-01 0.26539E-01 0.30202E-01 0.28325E-01
 0.21653E-01 0.13324E-01 0.65663E-02 0.28669E-02 0.16859E-02 0.14726E-02 0.10841E-02 0.56088E-03 0.66058E-03 0.16618E-02
 0.27978E-02 0.30298E-02 0.22277E-02 0.12893E-02 0.10866E-02 0.15773E-02 0.20506E-02 0.19835E-02 0.14384E-02 0.79556E-03
 0.38805E-03 0.37604E-03 0.70943E-03 0.11049E-02 0.12107E-02 0.91798E-03 0.45923E-03 0.14108E-03 0.44832E-04 0.39562E-04
 0.99536E-05 -.25594E-04 0.15262E-04 0.62194E-04 0.83488E-04 0.14460E-03 0.33526E-03 0.74897E-03 0.14316E-02 0.22019E-02
 0.26124E-02 0.23279E-02 0.16038E-02 0.12504E-02 0.20423E-02 0.41477E-02 0.69809E-02 0.94601E-02 0.10676E-01 0.10878E-01
 0.11903E-01 0.15951E-01 0.23157E-01 0.30415E-01 0.33259E-01 0.29402E-01 0.20567E-01 0.10982E-01 0.42574E-02 0.14277E-02
 0.11935E-02 0.14950E-02 0.11035E-02 0.29510E-03 0.19528E-03 0.13367E-02 0.28925E-02 0.35122E-02 0.28177E-02 0.17485E-02
 0.14057E-02 0.19052E-02 0.25156E-02 0.25929E-02 0.20900E-02 0.13602E-02 0.82432E-03 0.77953E-03 0.12000E-02 0.16503E-02
 0.16254E-02 0.10738E-02 0.43241E-03 0.99187E-04 0.48789E-04 0.38149E-04 -.17340E-04 -.34047E-04 0.69086E-04 0.52770E-04
 -.21575E-04 -.20234E-04 0.16107E-03 0.57221E-03 0.12244E-02 0.19511E-02 0.23429E-02 0.20909E-02 0.14575E-02 0.12335E-02
 0.21265E-02 0.42047E-02 0.68349E-02 0.90320E-02 0.10110E-01 0.10498E-01 0.11962E-01 0.16294E-01 0.23092E-01 0.28993E-01
 0.29880E-01 0.24355E-01 0.15061E-01 0.65862E-02 0.21111E-02 0.17196E-02 0.31835E-02 0.39835E-02 0.30394E-02 0.12053E-02
 0.24696E-03 0.10542E-02 0.27542E-02 0.37024E-02 0.32467E-02 0.22336E-02 0.18289E-02 0.22577E-02 0.28519E-02 0.29591E-02
 0.24792E-02 0.17246E-02 0.11262E-02 0.10205E-02 0.13951E-02 0.17910E-02 0.16918E-02 0.10759E-02 0.41169E-03 0.83018E-04
 0.30693E-04 0.14998E-04 -.17285E-04 0.10905E-04 0.88392E-04 0.68098E-04 0.37566E-05 0.41744E-04 0.31021E-03 0.83729E-03
 0.15363E-02 0.21691E-02 0.23982E-02 0.20690E-02 0.15071E-02 0.14288E-02 0.24387E-02 0.45361E-02 0.70212E-02 0.88868E-02
 0.95813E-02 0.97199E-02 0.10941E-01 0.14476E-01 0.19434E-01 0.22752E-01 0.21484E-01 0.15517E-01 0.80372E-02 0.31806E-02
 0.30213E-02 0.63649E-02 0.99587E-02 0.10895E-01 0.85084E-02 0.45952E-02 0.18102E-02 0.14832E-02 0.27511E-02 0.37602E-02
 0.35711E-02 0.27483E-02 0.23066E-02 0.25276E-02 0.29146E-02 0.29324E-02 0.24798E-02 0.17972E-02 0.12261E-02 0.10363E-02
 0.12372E-02 0.15000E-02 0.14292E-02 0.97184E-03 0.44291E-03 0.13316E-03 0.36514E-04 0.45216E-05 -.66429E-05 0.35658E-04
 0.48225E-04 0.59988E-04 0.63484E-04 0.20016E-03 0.62180E-03 0.13187E-02 0.20626E-02 0.25298E-02 0.25109E-02 0.20761E-02
 0.16158E-02 0.17115E-02 0.28197E-02 0.48761E-02 0.71355E-02 0.85782E-02 0.87718E-02 0.84519E-02 0.90313E-02 0.11185E-01
 0.13799E-01 0.14567E-01 0.12014E-01 0.71966E-02 0.33841E-02 0.37845E-02 0.90699E-02 0.16647E-01 0.22242E-01 0.22693E-01
 0.17964E-01 0.10964E-01 0.53198E-02 0.28941E-02 0.30077E-02 0.37333E-02 0.37800E-02 0.32136E-02 0.27383E-02 0.26937E-02
 0.28205E-02 0.27176E-02 0.22630E-02 0.16289E-02 0.10804E-02 0.80943E-03 0.83978E-03 0.10056E-02 0.10647E-02 0.89655E-03
 0.58517E-03 0.29601E-03 0.11196E-03 0.16878E-04 -.16062E-04 0.55422E-05 0.18953E-04 0.26825E-04 0.42460E-04 0.23688E-03
 0.78157E-03 0.16024E-02 0.23370E-02 0.26176E-02 0.23838E-02 0.19038E-02 0.15865E-02 0.18378E-02 0.29349E-02 0.47638E-02
 0.66375E-02 0.76529E-02 0.74986E-02 0.68733E-02 0.68554E-02 0.77187E-02 0.84538E-02 0.76562E-02 0.51020E-02 0.25991E-02
 0.32009E-02 0.91022E-02 0.19626E-01 0.30906E-01 0.37856E-01 0.37259E-01 0.29750E-01 0.19211E-01 0.10114E-01 0.49268E-02
 0.33596E-02 0.35342E-02 0.37598E-02 0.34934E-02 0.30765E-02 0.28986E-02 0.28966E-02 0.27258E-02 0.22060E-02 0.14918E-02
 0.87139E-03 0.52174E-03 0.46327E-03 0.62314E-03 0.85751E-03 0.97724E-03 0.86141E-03 0.56068E-03 0.24296E-03 0.38664E-04
 -.32415E-04 -.17575E-04 0.45766E-04 0.96583E-05 -.27562E-04 0.13632E-03 0.67583E-03 0.14783E-02 0.21301E-02 0.22716E-02
 0.19355E-02 0.14835E-02 0.12955E-02 0.16177E-02 0.25704E-02 0.40264E-02 0.54524E-02 0.61566E-02 0.59226E-02 0.52975E-02
 0.50248E-02 0.51651E-02 0.49556E-02 0.37201E-02 0.20382E-02 0.20705E-02 0.65334E-02 0.16751E-01 0.31004E-01 0.44577E-01
 0.51995E-01 0.50183E-01 0.40278E-01 0.26750E-01 0.14612E-01 0.68572E-02 0.36308E-02 0.31790E-02 0.35056E-02 0.35645E-02
 0.33789E-02 0.33226E-02 0.34140E-02 0.32945E-02 0.27198E-02 0.18559E-02 0.10666E-02 0.57819E-03 0.42990E-03 0.59123E-03
 0.95022E-03 0.12485E-02 0.12196E-02 0.84316E-03 0.36849E-03 0.58526E-04 -.24461E-04 0.14283E-04 0.76408E-04 0.27424E-04
 -.30840E-04 0.54993E-04 0.43589E-03 0.10499E-02 0.15625E-02 0.16515E-02 0.13407E-02 0.96656E-03 0.85799E-03 0.11614E-02
 0.18996E-02 0.29640E-02 0.39933E-02 0.45048E-02 0.43475E-02 0.39232E-02 0.37411E-02 0.37631E-02 0.34123E-02 0.24230E-02
 0.17495E-02 0.36031E-02 0.10329E-01 0.22638E-01 0.38274E-01 0.52310E-01 0.59391E-01 0.56713E-01 0.45643E-01 0.30765E-01
 0.17189E-01 0.80977E-02 0.38944E-02 0.29886E-02 0.33237E-02 0.36351E-02 0.37546E-02 0.39912E-02 0.43569E-02 0.44457E-02
 0.39337E-02 0.29575E-02 0.19360E-02 0.11924E-02 0.85298E-03 0.93519E-03 0.13102E-02 0.16342E-02 0.15507E-02 0.10361E-02
 0.42826E-03 0.67383E-04 -.15978E-06 0.54132E-04 0.60537E-04 0.59619E-04 0.53132E-04 0.67136E-04 0.21543E-03 0.56144E-03
 0.93499E-03 0.10572E-02 0.87009E-03 0.61363E-03 0.56125E-03 0.80962E-03 0.13329E-02 0.20490E-02 0.27399E-02 0.30909E-02
 0.30045E-02 0.27850E-02 0.28016E-02 0.29737E-02 0.28238E-02 0.22337E-02 0.21811E-02 0.46638E-02 0.11649E-01 0.23555E-01
 0.38175E-01 0.50990E-01 0.57191E-01 0.54344E-01 0.43819E-01 0.29871E-01 0.17167E-01 0.85783E-02 0.44783E-02 0.34597E-02
 0.36826E-02 0.39967E-02 0.42492E-02 0.47287E-02 0.54039E-02 0.57732E-02 0.53874E-02 0.43162E-02 0.30315E-02 0.19916E-02
 0.14413E-02 0.14261E-02 0.17533E-02 0.19898E-02 0.17510E-02 0.10779E-02 0.39489E-03 0.48027E-04 0.64687E-05 0.47673E-04
 0.37723E-04 0.81632E-04 0.12419E-03 0.91924E-04 0.68661E-04 0.22002E-03 0.51768E-03 0.72391E-03 0.69792E-03 0.57130E-03
 0.56196E-03 0.74675E-03 0.10835E-02 0.15123E-02 0.19168E-02 0.21094E-02 0.20262E-02 0.18836E-02 0.19556E-02 0.21804E-02
 0.21781E-02 0.18310E-02 0.18833E-02 0.39214E-02 0.95615E-02 0.19204E-01 0.31092E-01 0.41525E-01 0.46554E-01 0.44247E-01
 0.35853E-01 0.24927E-01 0.15192E-01 0.87643E-02 0.57296E-02 0.48667E-02 0.47712E-02 0.47112E-02 0.47741E-02 0.52863E-02
 0.61137E-02 0.66034E-02 0.61988E-02 0.49678E-02 0.34780E-02 0.23013E-02 0.17239E-02 0.17352E-02 0.20469E-02 0.21777E-02
 0.17841E-02 0.99739E-03 0.29657E-03 -.33167E-05 -.88067E-05 0.27062E-04 0.57494E-04 0.81783E-04 0.10718E-03 0.63781E-04
 0.11365E-04 0.11983E-03 0.41890E-03 0.71248E-03 0.81292E-03 0.75708E-03 0.71939E-03 0.80155E-03 0.99044E-03 0.12386E-02
 0.14703E-02 0.15590E-02 0.14382E-02 0.12388E-02 0.11851E-02 0.12970E-02 0.13044E-02 0.10130E-02 0.82998E-03 0.18965E-02
 0.55254E-02 0.12169E-01 0.20606E-01 0.28115E-01 0.31834E-01 0.30479E-01 0.25114E-01 0.18356E-01 0.12695E-01 0.92524E-02
 0.76789E-02 0.69359E-02 0.62284E-02 0.54855E-02 0.51510E-02 0.55139E-02 0.62221E-02 0.64946E-02 0.58238E-02 0.44066E-02
 0.28981E-02 0.18663E-02 0.15091E-02 0.16948E-02 0.20620E-02 0.21538E-02 0.17075E-02 0.90567E-03 0.22257E-03 -.47113E-04
 -.18224E-04 0.44742E-04 0.81747E-04 0.53600E-04 0.40333E-04 0.28629E-04 0.46781E-04 0.20444E-03 0.53783E-03 0.88925E-03
 0.10416E-02 0.95211E-03 0.78146E-03 0.71008E-03 0.79610E-03 0.99086E-03 0.11913E-02 0.12605E-02 0.11078E-02 0.82045E-03
 0.63503E-03 0.66710E-03 0.70722E-03 0.44713E-03 0.10234E-04 0.19772E-03 0.20424E-02 0.59369E-02 0.11064E-01 0.15669E-01
 0.18055E-01 0.17638E-01 0.15270E-01 0.12585E-01 0.10846E-01 0.10183E-01 0.98002E-02 0.88770E-02 0.73482E-02 0.58960E-02
 0.52477E-02 0.54683E-02 0.58941E-02 0.57244E-02 0.46840E-02 0.31646E-02 0.18218E-02 0.10938E-02 0.10355E-02 0.14200E-02
 0.18746E-02 0.20118E-02 0.16366E-02 0.91636E-03 0.26481E-03 -.24250E-04 -.56203E-05 0.74876E-04 0.51466E-04 0.61966E-05
 -.10433E-05 0.33532E-04 0.10906E-03 0.29809E-03 0.64351E-03 0.10073E-02 0.11461E-02 0.97105E-03 0.65450E-03 0.45045E-03
 0.47215E-03 0.66250E-03 0.88355E-03 0.97658E-03 0.83666E-03 0.54613E-03 0.37467E-03 0.49684E-03 0.71401E-03 0.62848E-03
 0.18763E-03 -.50728E-04 0.66221E-03 0.25590E-02 0.50850E-02 0.72905E-02 0.84883E-02 0.86822E-02 0.85285E-02 0.88364E-02
 0.98679E-02 0.10990E-01 0.11134E-01 0.97862E-02 0.75648E-02 0.57371E-02 0.51138E-02 0.54200E-02 0.56867E-02 0.51580E-02
 0.38262E-02 0.22574E-02 0.10670E-02 0.55813E-03 0.68555E-03 0.11877E-02 0.17107E-02 0.19202E-02 0.16529E-02 0.10373E-02
 0.41721E-03 0.77199E-04 0.25117E-04 0.64898E-04 -.99456E-06 -.23673E-04 -.62088E-06 0.40894E-04 0.10120E-03 0.26403E-03
 0.57197E-03 0.88441E-03 0.96991E-03 0.75771E-03 0.42218E-03 0.19834E-03 0.18247E-03 0.32651E-03 0.52435E-03 0.64342E-03
 0.57545E-03 0.37809E-03 0.30965E-03 0.57057E-03 0.10054E-02 0.12158E-02 0.10423E-02 0.81775E-03 0.10288E-02 0.17810E-02
 0.27046E-02 0.33708E-02 0.37250E-02 0.41426E-02 0.51394E-02 0.69495E-02 0.91793E-02 0.10825E-01 0.10879E-01 0.91988E-02
 0.68127E-02 0.51799E-02 0.49968E-02 0.56965E-02 0.60881E-02 0.54200E-02 0.38623E-02 0.21496E-02 0.94124E-03 0.48668E-03
 0.67776E-03 0.12223E-02 0.17618E-02 0.19744E-02 0.17219E-02 0.11433E-02 0.55438E-03 0.19623E-03 0.72956E-04 0.38391E-04
 -.62743E-06 -.40310E-05 0.16329E-04 0.15173E-04 0.25825E-04 0.13847E-03 0.35780E-03 0.54718E-03 0.56088E-03 0.39903E-03
 0.19084E-03 0.54430E-04 0.26537E-04 0.10365E-03 0.26181E-03 0.41260E-03 0.43273E-03 0.32193E-03 0.28339E-03 0.53478E-03
 0.10268E-02 0.14524E-02 0.15937E-02 0.15804E-02 0.17094E-02 0.20482E-02 0.23464E-02 0.23876E-02 0.23535E-02 0.27603E-02
 0.40220E-02 0.60412E-02 0.81386E-02 0.93655E-02 0.90757E-02 0.74575E-02 0.55726E-02 0.46658E-02 0.51803E-02 0.63711E-02
 0.69520E-02 0.61849E-02 0.43834E-02 0.24725E-02 0.12057E-02 0.79023E-03 0.10273E-02 0.15662E-02 0.20268E-02 0.20998E-02
 0.17119E-02 0.10857E-02 0.54713E-03 0.25163E-03 0.12711E-03 0.51455E-04 0.42390E-04 0.48871E-04 0.43775E-04 0.14305E-05
 -.16049E-04 0.47714E-04 0.14722E-03 0.18979E-03 0.15132E-03 0.82726E-04 0.24575E-04 -.21746E-04 -.37640E-04 0.32574E-04
 0.20345E-03 0.37935E-03 0.42114E-03 0.30639E-03 0.19731E-03 0.30233E-03 0.65471E-03 0.10669E-02 0.13446E-02 0.15140E-02
 0.17582E-02 0.21255E-02 0.24151E-02 0.24513E-02 0.24163E-02 0.27775E-02 0.38284E-02 0.53410E-02 0.66768E-02 0.72111E-02
 0.67260E-02 0.55893E-02 0.46301E-02 0.46419E-02 0.57223E-02 0.70448E-02 0.74556E-02 0.64380E-02 0.45013E-02 0.26472E-02
 0.15617E-02 0.13171E-02 0.16146E-02 0.20701E-02 0.23177E-02 0.21154E-02 0.15134E-02 0.83659E-03 0.39100E-03 0.21158E-03
 0.14129E-03 0.77978E-04 0.55177E-04 0.90449E-04 0.87674E-04 0.42627E-04 0.15497E-04 0.25654E-04 0.25383E-04 -.93068E-05
 -.37942E-04 -.33076E-04 -.30265E-04 -.54125E-04 -.46218E-04 0.68315E-04 0.25857E-03 0.38926E-03 0.35659E-03 0.19838E-03
 0.63569E-04 0.83396E-04 0.26733E-03 0.51657E-03 0.74720E-03 0.99410E-03 0.13549E-02 0.18209E-02 0.22303E-02 0.24597E-02
 0.26302E-02 0.30262E-02 0.37780E-02 0.46744E-02 0.53167E-02 0.54363E-02 0.50911E-02 0.46528E-02 0.46151E-02 0.52546E-02
 0.63137E-02 0.70525E-02 0.67893E-02 0.54882E-02 0.37888E-02 0.24579E-02 0.18562E-02 0.18784E-02 0.22028E-02 0.24787E-02
 0.24107E-02 0.18981E-02 0.11441E-02 0.50992E-03 0.19411E-03 0.10884E-03 0.76902E-04 0.46035E-04 0.39970E-04 0.11153E-03
 0.12913E-03 0.91334E-04 0.44801E-04 0.13781E-04 -.77392E-05 -.15686E-04 0.72855E-06 0.21900E-04 0.15668E-04 0.58498E-06
 0.41937E-04 0.15726E-03 0.26258E-03 0.25473E-03 0.13518E-03 0.15585E-04 -.10868E-06 0.91153E-04 0.22330E-03 0.35824E-03
 0.52775E-03 0.78535E-03 0.11367E-02 0.15284E-02 0.19064E-02 0.22787E-02 0.27118E-02 0.32523E-02 0.38486E-02 0.43560E-02
 0.46402E-02 0.47042E-02 0.47299E-02 0.49678E-02 0.55164E-02 0.61593E-02 0.64480E-02 0.60282E-02 0.49414E-02 0.36135E-02
 0.25432E-02 0.19982E-02 0.19583E-02 0.22295E-02 0.25376E-02 0.25895E-02 0.22079E-02 0.14834E-02 0.73507E-03 0.24753E-03
 0.55173E-04 0.47014E-05 -.22344E-04 -.19636E-04 0.83244E-04 0.15018E-03 0.14717E-03 0.86479E-04 0.26957E-04 0.17770E-04
 0.53600E-04 0.85246E-04 0.76885E-04 0.49151E-04 0.57755E-04 0.12867E-03 0.22053E-03 0.25526E-03 0.18921E-03 0.60678E-04
 -.31131E-04 -.54564E-05 0.13182E-03 0.30543E-03 0.46211E-03 0.62693E-03 0.84795E-03 0.11043E-02 0.13195E-02 0.14821E-02
 0.17125E-02 0.21652E-02 0.28654E-02 0.36558E-02 0.42988E-02 0.46377E-02 0.47152E-02 0.47851E-02 0.51515E-02 0.58731E-02
 0.65785E-02 0.66679E-02 0.58140E-02 0.42836E-02 0.27345E-02 0.17055E-02 0.13274E-02 0.14442E-02 0.18453E-02 0.23122E-02
 0.25711E-02 0.23907E-02 0.17813E-02 0.10206E-02 0.42550E-03 0.11251E-03 -.63409E-05 -.51129E-04 -.56336E-04 -.59320E-05
 0.21234E-03 0.23293E-03 0.16302E-03 0.62428E-04 0.34272E-04 0.11641E-03 0.21135E-03 0.18245E-03 0.33324E-04 -.67949E-04
 0.17474E-04 0.22307E-03 0.34762E-03 0.28497E-03 0.13164E-03 0.62751E-04 0.14601E-03 0.30179E-03 0.42344E-03 0.50651E-03
 0.64968E-03 0.93029E-03 0.12871E-02 0.15486E-02 0.16028E-02 0.15455E-02 0.16492E-02 0.21658E-02 0.31184E-02 0.42266E-02
 0.50385E-02 0.52473E-02 0.50018E-02 0.48750E-02 0.53581E-02 0.62829E-02 0.68306E-02 0.62474E-02 0.45653E-02 0.25676E-02
 0.10919E-02 0.46772E-03 0.56278E-03 0.11157E-02 0.18547E-02 0.24303E-02 0.25085E-02 0.20319E-02 0.12904E-02 0.65428E-03
 0.27815E-03 0.91185E-04 -.83851E-05 -.39703E-04 0.11064E-04 0.11728E-03 0.33858E-03 0.33092E-03 0.21120E-03 0.91477E-04
 0.11831E-03 0.27916E-03 0.36475E-03 0.21062E-03 -.67091E-04 -.18157E-03 -.21025E-04 0.21681E-03 0.27898E-03 0.16980E-03
 0.12832E-03 0.31605E-03 0.61036E-03 0.74806E-03 0.63995E-03 0.48811E-03 0.57442E-03 0.96026E-03 0.14245E-02 0.16853E-02
 0.16525E-02 0.14907E-02 0.15182E-02 0.20497E-02 0.31814E-02 0.45733E-02 0.55231E-02 0.55153E-02 0.48137E-02 0.43313E-02
 0.47090E-02 0.55709E-02 0.58704E-02 0.49671E-02 0.32070E-02 0.14646E-02 0.36825E-03 0.76253E-04 0.51574E-03 0.14729E-02
 0.24699E-02 0.29029E-02 0.25164E-02 0.16458E-02 0.86275E-03 0.44399E-03 0.27197E-03 0.15062E-03 0.46690E-04 0.26969E-04
 0.10991E-03 0.24080E-03 0.37384E-03 0.38403E-03 0.27106E-03 0.15599E-03 0.18705E-03 0.32406E-03 0.35852E-03 0.18932E-03
 -.22718E-04 -.56600E-04 0.76681E-04 0.15495E-03 0.59054E-04 -.36247E-04 0.13907E-03 0.58856E-03 0.97378E-03 0.95431E-03
 0.57450E-03 0.24203E-03 0.30875E-03 0.73581E-03 0.11997E-02 0.14383E-02 0.14148E-02 0.12530E-02 0.12054E-02 0.16498E-02
 0.28126E-02 0.43208E-02 0.52538E-02 0.49745E-02 0.38959E-02 0.31368E-02 0.33297E-02 0.39877E-02 0.41552E-02 0.34414E-02
 0.22233E-02 0.10765E-02 0.38082E-03 0.40316E-03 0.12759E-02 0.26472E-02 0.36420E-02 0.35371E-02 0.24639E-02 0.12430E-02
 0.53950E-03 0.35969E-03 0.33901E-03 0.25794E-03 0.15470E-03 0.11811E-03 0.16496E-03 0.26973E-03 0.32128E-03 0.35023E-03
 0.27721E-03 0.17402E-03 0.13237E-03 0.15548E-03 0.18782E-03 0.21069E-03 0.24787E-03 0.28771E-03 0.25597E-03 0.99967E-04
 -.99810E-04 -.13292E-03 0.15750E-03 0.64796E-03 0.95317E-03 0.78519E-03 0.29680E-03 -.43373E-04 0.55100E-04 0.44725E-03
 0.81503E-03 0.10125E-02 0.10468E-02 0.92673E-03 0.79450E-03 0.10774E-02 0.21090E-02 0.35009E-02 0.42533E-02 0.37700E-02