PROCAR lm decomposed + phase
# of k-points:    1         # of bands:   8         # of ions:   5

 k-point    1 :    0.00000000 0.00000000 0.00000000     weight = 1.00000000

band   1 # energy  -16.58199244 # occ.  2.00000000
 
ion      s     py     pz     px    dxy    dyz    dz2    dxz    dx2    tot
  1  0.415  0.000  0.000  0.000  0.000  0.000  0.000  0.000  0.000  0.415
  2  0.070  0.002  0.002  0.002  0.000  0.000  0.000  0.000  0.000  0.076
  3  0.070  0.002  0.002  0.002  0.000  0.000  0.000  0.000  0.000  0.076
  4  0.070  0.002  0.002  0.002  0.000  0.000  0.000  0.000  0.000  0.076
  5  0.070  0.002  0.002  0.002  0.000  0.000  0.000  0.000  0.000  0.076
tot  0.695  0.008  0.008  0.008  0.000  0.000  0.000  0.000  0.000  0.720
ion      s     py     pz     px    dxy    dyz    dz2    dxz    dx2
  1 -0.285  0.000  0.000 -0.000  0.000  0.000  0.000  0.000  0.000
  1  1.036 -0.000 -0.000  0.000  0.000  0.000  0.000  0.000  0.000
  2 -0.156 -0.016 -0.016 -0.016  0.000  0.000  0.000  0.000  0.000
  2  0.567  0.057  0.057  0.057  0.000  0.000  0.000  0.000  0.000
  3 -0.156  0.016 -0.016  0.016  0.000  0.000  0.000  0.000  0.000
  3  0.567 -0.057  0.057 -0.057  0.000  0.000  0.000  0.000  0.000
  4 -0.156  0.016  0.016 -0.016  0.000  0.000  0.000  0.000  0.000
  4  0.567 -0.057 -0.057  0.057  0.000  0.000  0.000  0.000  0.000
  5 -0.156 -0.016  0.016  0.016  0.000  0.000  0.000  0.000  0.000
  5  0.567  0.057 -0.057 -0.057  0.000  0.000  0.000  0.000  0.000
 
band   2 # energy   -8.88691084 # occ.  2.00000000
 
ion      s     py     pz     px    dxy    dyz    dz2    dxz    dx2    tot
  1  0.000  0.131  0.146  0.031  0.000  0.000  0.000  0.000  0.000  0.308
  2  0.011  0.002  0.000  0.000  0.000  0.000  0.000  0.000  0.000  0.014
  3  0.089  0.000  0.000  0.004  0.000  0.000  0.000  0.000  0.000  0.094
  4  0.007  0.000  0.002  0.000  0.000  0.000  0.000  0.000  0.000  0.009
  5  0.235  0.002  0.002  0.004  0.000  0.000  0.000  0.000  0.000  0.243
tot  0.342  0.136  0.150  0.039  0.000  0.000  0.000  0.000  0.000  0.667
ion      s     py     pz     px    dxy    dyz    dz2    dxz    dx2
  1  0.000  0.130 -0.138 -0.064  0.000  0.000  0.000  0.000  0.000
  1 -0.000 -0.669  0.706  0.327  0.000  0.000  0.000  0.000  0.000
  2  0.039  0.012 -0.004  0.000  0.000  0.000  0.000  0.000  0.000
  2 -0.199 -0.062  0.023 -0.001  0.000  0.000  0.000  0.000  0.000
  3  0.112 -0.004  0.003 -0.016  0.000  0.000  0.000  0.000  0.000
  3 -0.572  0.019 -0.017  0.081  0.000  0.000  0.000  0.000  0.000
  4  0.031  0.005 -0.012 -0.001  0.000  0.000  0.000  0.000  0.000
  4 -0.158 -0.025  0.060  0.003  0.000  0.000  0.000  0.000  0.000
  5 -0.181 -0.011  0.011  0.015  0.000  0.000  0.000  0.000  0.000
  5  0.929  0.057 -0.055 -0.078  0.000  0.000  0.000  0.000  0.000
 
band   3 # energy   -8.88691084 # occ.  2.00000000
 
ion      s     py     pz     px    dxy    dyz    dz2    dxz    dx2    tot
  1  0.000  0.076  0.001  0.230  0.000  0.000  0.000  0.000  0.000  0.308
  2  0.175  0.002  0.004  0.001  0.000  0.000  0.000  0.000  0.000  0.181
  3  0.143  0.001  0.004  0.000  0.000  0.000  0.000  0.000  0.000  0.149
  4  0.008  0.002  0.000  0.001  0.000  0.000  0.000  0.000  0.000  0.010
  5  0.016  0.002  0.000  0.001  0.000  0.000  0.000  0.000  0.000  0.019
tot  0.342  0.082  0.010  0.233  0.000  0.000  0.000  0.000  0.000  0.667
ion      s     py     pz     px    dxy    dyz    dz2    dxz    dx2
  1 -0.000  0.465  0.065  0.812  0.000  0.000  0.000  0.000  0.000
  1 -0.000  0.229  0.032  0.399  0.000  0.000  0.000  0.000  0.000
  2 -0.733 -0.049 -0.074 -0.028  0.000  0.000  0.000  0.000  0.000
  2 -0.360 -0.024 -0.036 -0.014  0.000  0.000  0.000  0.000  0.000
  3  0.662 -0.042  0.074 -0.020  0.000  0.000  0.000  0.000  0.000
  3  0.326 -0.020  0.037 -0.010  0.000  0.000  0.000  0.000  0.000
  4 -0.154  0.045  0.020  0.034  0.000  0.000  0.000  0.000  0.000
  4 -0.076  0.022  0.010  0.017  0.000  0.000  0.000  0.000  0.000
  5  0.225  0.053 -0.020  0.026  0.000  0.000  0.000  0.000  0.000
  5  0.110  0.026 -0.010  0.013  0.000  0.000  0.000  0.000  0.000
 
band   4 # energy   -8.88691084 # occ.  2.00000000
 
ion      s     py     pz     px    dxy    dyz    dz2    dxz    dx2    tot
  1  0.000  0.101  0.160  0.046  0.000  0.000  0.000  0.000  0.000  0.308
  2  0.071  0.000  0.000  0.004  0.000  0.000  0.000  0.000  0.000  0.075
  3  0.024  0.003  0.000  0.000  0.000  0.000  0.000  0.000  0.000  0.027
  4  0.242  0.002  0.002  0.004  0.000  0.000  0.000  0.000  0.000  0.250
  5  0.005  0.000  0.002  0.000  0.000  0.000  0.000  0.000  0.000  0.007
tot  0.342  0.107  0.165  0.053  0.000  0.000  0.000  0.000  0.000  0.667
ion      s     py     pz     px    dxy    dyz    dz2    dxz    dx2
  1  0.000  0.223  0.281 -0.150  0.000  0.000  0.000  0.000  0.000
  1 -0.000 -0.557 -0.701  0.375  0.000  0.000  0.000  0.000  0.000
  2 -0.193 -0.007 -0.003 -0.030  0.000  0.000  0.000  0.000  0.000
  2  0.482  0.017  0.008  0.074  0.000  0.000  0.000  0.000  0.000
  3 -0.114  0.026  0.005  0.003  0.000  0.000  0.000  0.000  0.000
  3  0.283 -0.064 -0.013 -0.007  0.000  0.000  0.000  0.000  0.000
  4  0.358 -0.024 -0.021  0.029  0.000  0.000  0.000  0.000  0.000
  4 -0.891  0.060  0.051 -0.071  0.000  0.000  0.000  0.000  0.000
  5 -0.051  0.008  0.023 -0.004  0.000  0.000  0.000  0.000  0.000
  5  0.126 -0.021 -0.057  0.010  0.000  0.000  0.000  0.000  0.000
 
band   5 # energy   -0.78679296 # occ.  0.00000000
 
ion      s     py     pz     px    dxy    dyz    dz2    dxz    dx2    tot
  1  0.035  0.000  0.000  0.000  0.000  0.000  0.000  0.000  0.000  0.035
  2  0.000  0.001  0.001  0.001  0.000  0.000  0.000  0.000  0.000  0.002
  3  0.000  0.001  0.001  0.001  0.000  0.000  0.000  0.000  0.000  0.002
  4  0.000  0.001  0.001  0.001  0.000  0.000  0.000  0.000  0.000  0.002
  5  0.000  0.001  0.001  0.001  0.000  0.000  0.000  0.000  0.000  0.002
tot  0.035  0.003  0.003  0.003  0.000  0.000  0.000  0.000  0.000  0.045
ion      s     py     pz     px    dxy    dyz    dz2    dxz    dx2
  1  0.090  0.000  0.000  0.000  0.000  0.000  0.000  0.000  0.000
  1  0.123  0.000  0.000 -0.000  0.000  0.000  0.000  0.000  0.000
  2 -0.003  0.022  0.022  0.022  0.000  0.000  0.000  0.000  0.000
  2 -0.003  0.029  0.029  0.029  0.000  0.000  0.000  0.000  0.000
  3 -0.003 -0.022  0.022 -0.022  0.000  0.000  0.000  0.000  0.000
  3 -0.003 -0.029  0.029 -0.029  0.000  0.000  0.000  0.000  0.000
  4 -0.003 -0.022 -0.022  0.022  0.000  0.000  0.000  0.000  0.000
  4 -0.003 -0.029 -0.029  0.029  0.000  0.000  0.000  0.000  0.000
  5 -0.003  0.022 -0.022 -0.022  0.000  0.000  0.000  0.000  0.000
  5 -0.003  0.029 -0.029 -0.029  0.000  0.000  0.000  0.000  0.000
 
band   6 # energy    2.42331896 # occ.  0.00000000
 
ion      s     py     pz     px    dxy    dyz    dz2    dxz    dx2    tot
  1  0.000  0.000  0.000  0.000  0.000  0.000  0.000  0.000  0.000  0.000
  2  0.000  0.000  0.000  0.001  0.000  0.000  0.000  0.000  0.000  0.001
  3  0.000  0.000  0.000  0.001  0.000  0.000  0.000  0.000  0.000  0.001
  4  0.000  0.000  0.000  0.001  0.000  0.000  0.000  0.000  0.000  0.001
  5  0.000  0.000  0.000  0.001  0.000  0.000  0.000  0.000  0.000  0.001
tot  0.000  0.001  0.000  0.003  0.000  0.000  0.000  0.000  0.000  0.005
ion      s     py     pz     px    dxy    dyz    dz2    dxz    dx2
  1  0.000 -0.000  0.000  0.000  0.000  0.000  0.000  0.000  0.000
  1  0.000 -0.000  0.000  0.000  0.000  0.000  0.000  0.000  0.000
  2  0.000 -0.022 -0.010  0.032  0.000  0.000  0.000  0.000  0.000
  2 -0.000 -0.012 -0.005  0.017  0.000  0.000  0.000  0.000  0.000
  3 -0.000  0.022 -0.010 -0.032  0.000  0.000  0.000  0.000  0.000
  3  0.000  0.012 -0.005 -0.017  0.000  0.000  0.000  0.000  0.000
  4  0.000  0.022  0.010  0.032  0.000  0.000  0.000  0.000  0.000
  4  0.000  0.012  0.005  0.017  0.000  0.000  0.000  0.000  0.000
  5 -0.000 -0.022  0.010 -0.032  0.000  0.000  0.000  0.000  0.000
  5 -0.000 -0.012  0.005 -0.017  0.000  0.000  0.000  0.000  0.000
 
band   7 # energy    2.42331897 # occ.  0.00000000
 
ion      s     py     pz     px    dxy    dyz    dz2    dxz    dx2    tot
  1  0.000  0.000  0.000  0.000  0.000  0.000  0.000  0.000  0.000  0.000
  2  0.000  0.000  0.001  0.000  0.000  0.000  0.000  0.000  0.000  0.001
  3  0.000  0.000  0.001  0.000  0.000  0.000  0.000  0.000  0.000  0.001
  4  0.000  0.000  0.001  0.000  0.000  0.000  0.000  0.000  0.000  0.001
  5  0.000  0.000  0.001  0.000  0.000  0.000  0.000  0.000  0.000  0.001
tot  0.000  0.002  0.003  0.000  0.000  0.000  0.000  0.000  0.000  0.005
ion      s     py     pz     px    dxy    dyz    dz2    dxz    dx2
  1 -0.000  0.000 -0.000  0.000  0.000  0.000  0.000  0.000  0.000
  1  0.000 -0.000  0.000 -0.000  0.000  0.000  0.000  0.000  0.000
  2 -0.000  0.009 -0.012  0.003  0.000  0.000  0.000  0.000  0.000
  2  0.000 -0.026  0.033 -0.007  0.000  0.000  0.000  0.000  0.000
  3 -0.000 -0.009 -0.012 -0.003  0.000  0.000  0.000  0.000  0.000
  3  0.000  0.026  0.033  0.007  0.000  0.000  0.000  0.000  0.000
  4  0.000 -0.009  0.012  0.003  0.000  0.000  0.000  0.000  0.000
  4 -0.000  0.026 -0.033 -0.007  0.000  0.000  0.000  0.000  0.000
  5  0.000  0.009  0.012 -0.003  0.000  0.000  0.000  0.000  0.000
  5 -0.000 -0.026 -0.033  0.007  0.000  0.000  0.000  0.000  0.000
 
band   8 # energy    2.92184730 # occ.  0.00000000
 
ion      s     py     pz     px    dxy    dyz    dz2    dxz    dx2    tot
  1  0.000  0.050  0.006  0.014  0.000  0.000  0.000  0.000  0.000  0.070
  2  0.000  0.002  0.003  0.002  0.000  0.000  0.000  0.000  0.000  0.007
  3  0.000  0.000  0.002  0.001  0.000  0.000  0.000  0.000  0.000  0.003
  4  0.000  0.000  0.001  0.002  0.000  0.000  0.000  0.000  0.000  0.003
  5  0.000  0.001  0.001  0.001  0.000  0.000  0.000  0.000  0.000  0.002
tot  0.000  0.053  0.013  0.020  0.000  0.000  0.000  0.000  0.000  0.085
ion      s     py     pz     px    dxy    dyz    dz2    dxz    dx2
  1  0.000 -0.079  0.059  0.121  0.000  0.000  0.000  0.000  0.000
  1 -0.000  0.326  0.105  0.130  0.000  0.000  0.000  0.000  0.000
  2 -0.003 -0.019 -0.009 -0.004  0.000  0.000  0.000  0.000  0.000
  2 -0.018 -0.049 -0.066 -0.064  0.000  0.000  0.000  0.000  0.000
  3 -0.001 -0.004  0.002  0.011  0.000  0.000  0.000  0.000  0.000
  3  0.012 -0.021  0.054 -0.036  0.000  0.000  0.000  0.000  0.000
  4 -0.005  0.013  0.023 -0.009  0.000  0.000  0.000  0.000  0.000
  4  0.010 -0.015 -0.032  0.050  0.000  0.000  0.000  0.000  0.000
  5  0.009  0.028 -0.030 -0.025  0.000  0.000  0.000  0.000  0.000
  5 -0.003  0.013  0.020  0.022  0.000  0.000  0.000  0.000  0.000
 
