Screening bandgap                       
           1
     6.350000    0.000000    0.000000
     0.000000    6.350000    0.000000
     0.000000    0.000000    6.350000
   C    H 
   1   4
Direct configuration=     1
   0.50000000  0.50000000  0.50000000
   0.40098670  0.40098670  0.40098670
   0.59901330  0.59901330  0.40098670
   0.40098670  0.59901330  0.59901330
   0.59901330  0.40098670  0.59901330
