Screening bandgap                       
   1.00000000000000     
     2.650000    0.000000    0.000000
     0.000000    4.000000    0.000000
     0.000000    0.000000    4.000000
   C 
     2
Direct
  0.273585  0.500000  0.500000
  0.726415  0.500000  0.500000
 
   24   36   36
 0.82814E-02 0.80647E-02 0.75801E-02 0.71231E-02 0.67769E-02 0.63757E-02 0.58121E-02 0.52837E-02 0.51616E-02 0.56284E-02
 0.64831E-02 0.72749E-02 0.75922E-02 0.72749E-02 0.64831E-02 0.56284E-02 0.51616E-02 0.52837E-02 0.58121E-02 0.63757E-02
 0.67769E-02 0.71231E-02 0.75801E-02 0.80647E-02 0.11308E-01 0.11046E-01 0.10431E-01 0.97845E-02 0.92704E-02 0.88271E-02
 0.84064E-02 0.81866E-02 0.84718E-02 0.93782E-02 0.10644E-01 0.11739E-01 0.12170E-01 0.11739E-01 0.10644E-01 0.93782E-02
 0.84718E-02 0.81866E-02 0.84064E-02 0.88271E-02 0.92704E-02 0.97845E-02 0.10431E-01 0.11046E-01 0.18507E-01 0.18169E-01
 0.17311E-01 0.16297E-01 0.15456E-01 0.14958E-01 0.14880E-01 0.15327E-01 0.16421E-01 0.18133E-01 0.20109E-01 0.21718E-01
 0.22341E-01 0.21718E-01 0.20109E-01 0.18133E-01 0.16421E-01 0.15327E-01 0.14880E-01 0.14958E-01 0.15456E-01 0.16297E-01
 0.17311E-01 0.18169E-01 0.26148E-01 0.25791E-01 0.24852E-01 0.23683E-01 0.22723E-01 0.22314E-01 0.22593E-01 0.23532E-01
 0.25041E-01 0.26969E-01 0.28998E-01 0.30595E-01 0.31208E-01 0.30595E-01 0.28998E-01 0.26969E-01 0.25041E-01 0.23532E-01
 0.22593E-01 0.22314E-01 0.22723E-01 0.23683E-01 0.24852E-01 0.25791E-01 0.32174E-01 0.31883E-01 0.31133E-01 0.30248E-01
 0.29627E-01 0.29557E-01 0.30080E-01 0.31025E-01 0.32170E-01 0.33354E-01 0.34442E-01 0.35243E-01 0.35542E-01 0.35243E-01
 0.34442E-01 0.33354E-01 0.32170E-01 0.31025E-01 0.30080E-01 0.29557E-01 0.29627E-01 0.30248E-01 0.31133E-01 0.31883E-01
 0.37578E-01 0.37423E-01 0.37095E-01 0.36893E-01 0.37048E-01 0.37567E-01 0.38259E-01 0.38862E-01 0.39173E-01 0.39125E-01
 0.38817E-01 0.38472E-01 0.38323E-01 0.38472E-01 0.38817E-01 0.39125E-01 0.39173E-01 0.38862E-01 0.38259E-01 0.37567E-01
 0.37048E-01 0.36893E-01 0.37095E-01 0.37423E-01 0.44701E-01 0.44776E-01 0.45115E-01 0.45900E-01 0.47090E-01 0.48355E-01
 0.49278E-01 0.49573E-01 0.49148E-01 0.48087E-01 0.46686E-01 0.45468E-01 0.44982E-01 0.45468E-01 0.46686E-01 0.48087E-01
 0.49148E-01 0.49573E-01 0.49278E-01 0.48355E-01 0.47090E-01 0.45900E-01 0.45115E-01 0.44776E-01 0.54788E-01 0.55242E-01
 0.56571E-01 0.58605E-01 0.60928E-01 0.62967E-01 0.64229E-01 0.64479E-01 0.63736E-01 0.62221E-01 0.60371E-01 0.58827E-01
 0.58222E-01 0.58827E-01 0.60371E-01 0.62221E-01 0.63736E-01 0.64479E-01 0.64229E-01 0.62967E-01 0.60928E-01 0.58605E-01
 0.56571E-01 0.55242E-01 0.67089E-01 0.68036E-01 0.70590E-01 0.74017E-01 0.77427E-01 0.80096E-01 0.81647E-01 0.82019E-01
 0.81348E-01 0.79914E-01 0.78172E-01 0.76736E-01 0.76179E-01 0.76736E-01 0.78172E-01 0.79914E-01 0.81348E-01 0.82019E-01
 0.81647E-01 0.80096E-01 0.77427E-01 0.74017E-01 0.70590E-01 0.68036E-01 0.79576E-01 0.80968E-01 0.84609E-01 0.89197E-01
 0.93359E-01 0.96265E-01 0.97790E-01 0.98214E-01 0.97842E-01 0.96887E-01 0.95619E-01 0.94506E-01 0.94059E-01 0.94506E-01
 0.95619E-01 0.96887E-01 0.97842E-01 0.98214E-01 0.97790E-01 0.96265E-01 0.93359E-01 0.89197E-01 0.84609E-01 0.80968E-01
 0.90251E-01 0.91848E-01 0.95944E-01 0.10087     0.10496     0.10740     0.10842     0.10874     0.10879     0.10858    
 0.10800     0.10730     0.10699     0.10730     0.10800     0.10858     0.10879     0.10874     0.10842     0.10740    
 0.10496     0.10087     0.95944E-01 0.91848E-01 0.98284E-01 0.99718E-01 0.10326     0.10717     0.10986     0.11089    
 0.11096     0.11112     0.11174     0.11246     0.11274     0.11258     0.11244     0.11258     0.11274     0.11246    
 0.11174     0.11112     0.11096     0.11089     0.10986     0.10717     0.10326     0.99718E-01 0.10431     0.10517    
 0.10701     0.10834     0.10815     0.10678     0.10555     0.10562     0.10707     0.10900     0.11044     0.11111    
 0.11126     0.11111     0.11044     0.10900     0.10707     0.10562     0.10555     0.10678     0.10815     0.10834    
 0.10701     0.10517     0.10936     0.10925     0.10842     0.10594     0.10177     0.97230E-01 0.94325E-01 0.94290E-01
 0.96810E-01 0.10041     0.10358     0.10551     0.10613     0.10551     0.10358     0.10041     0.96810E-01 0.94290E-01
 0.94325E-01 0.97230E-01 0.10177     0.10594     0.10842     0.10925     0.11316     0.11191     0.10798     0.10129    
 0.92796E-01 0.84750E-01 0.79746E-01 0.79267E-01 0.82832E-01 0.88429E-01 0.93779E-01 0.97362E-01 0.98591E-01 0.97362E-01
 0.93779E-01 0.88429E-01 0.82832E-01 0.79267E-01 0.79746E-01 0.84750E-01 0.92796E-01 0.10129     0.10798     0.11191    
 0.11406     0.11182     0.10522     0.94910E-01 0.82598E-01 0.71159E-01 0.63732E-01 0.62233E-01 0.66311E-01 0.73585E-01
 0.81000E-01 0.86206E-01 0.88041E-01 0.86206E-01 0.81000E-01 0.73585E-01 0.66311E-01 0.62233E-01 0.63732E-01 0.71159E-01
 0.82598E-01 0.94910E-01 0.10522     0.11182     0.11124     0.10844     0.10024     0.87557E-01 0.72439E-01 0.58173E-01
 0.48376E-01 0.45429E-01 0.49229E-01 0.57259E-01 0.65949E-01 0.72283E-01 0.74562E-01 0.72283E-01 0.65949E-01 0.57259E-01
 0.49229E-01 0.45429E-01 0.48376E-01 0.58173E-01 0.72439E-01 0.87557E-01 0.10024     0.10844     0.10682     0.10385    
 0.95081E-01 0.81270E-01 0.64519E-01 0.48373E-01 0.36822E-01 0.32559E-01 0.35663E-01 0.43635E-01 0.52732E-01 0.59577E-01
 0.62082E-01 0.59577E-01 0.52732E-01 0.43635E-01 0.35663E-01 0.32559E-01 0.36822E-01 0.48373E-01 0.64519E-01 0.81270E-01
 0.95081E-01 0.10385     0.10469     0.10171     0.92850E-01 0.78747E-01 0.61470E-01 0.44664E-01 0.32463E-01 0.27667E-01
 0.30410E-01 0.38224E-01 0.47351E-01 0.54312E-01 0.56878E-01 0.54312E-01 0.47351E-01 0.38224E-01 0.30410E-01 0.27667E-01
 0.32463E-01 0.44664E-01 0.61470E-01 0.78747E-01 0.92850E-01 0.10171     0.10682     0.10385     0.95081E-01 0.81270E-01
 0.64519E-01 0.48373E-01 0.36822E-01 0.32559E-01 0.35663E-01 0.43635E-01 0.52732E-01 0.59577E-01 0.62082E-01 0.59577E-01
 0.52732E-01 0.43635E-01 0.35663E-01 0.32559E-01 0.36822E-01 0.48373E-01 0.64519E-01 0.81270E-01 0.95081E-01 0.10385    
 0.11124     0.10844     0.10024     0.87557E-01 0.72439E-01 0.58173E-01 0.48376E-01 0.45429E-01 0.49229E-01 0.57259E-01
 0.65949E-01 0.72283E-01 0.74562E-01 0.72283E-01 0.65949E-01 0.57259E-01 0.49229E-01 0.45429E-01 0.48376E-01 0.58173E-01
 0.72439E-01 0.87557E-01 0.10024     0.10844     0.11406     0.11182     0.10522     0.94910E-01 0.82598E-01 0.71159E-01
 0.63732E-01 0.62233E-01 0.66311E-01 0.73585E-01 0.81000E-01 0.86206E-01 0.88041E-01 0.86206E-01 0.81000E-01 0.73585E-01
 0.66311E-01 0.62233E-01 0.63732E-01 0.71159E-01 0.82598E-01 0.94910E-01 0.10522     0.11182     0.11316     0.11191    
 0.10798     0.10129     0.92796E-01 0.84750E-01 0.79746E-01 0.79267E-01 0.82832E-01 0.88429E-01 0.93779E-01 0.97362E-01
 0.98591E-01 0.97362E-01 0.93779E-01 0.88429E-01 0.82832E-01 0.79267E-01 0.79746E-01 0.84750E-01 0.92796E-01 0.10129    
 0.10798     0.11191     0.10936     0.10925     0.10842     0.10594     0.10177     0.97230E-01 0.94325E-01 0.94290E-01
 0.96810E-01 0.10041     0.10358     0.10551     0.10613     0.10551     0.10358     0.10041     0.96810E-01 0.94290E-01
 0.94325E-01 0.97230E-01 0.10177     0.10594     0.10842     0.10925     0.10431     0.10517     0.10701     0.10834    
 0.10815     0.10678     0.10555     0.10562     0.10707     0.10900     0.11044     0.11111     0.11126     0.11111    
 0.11044     0.10900     0.10707     0.10562     0.10555     0.10678     0.10815     0.10834     0.10701     0.10517    
 0.98284E-01 0.99718E-01 0.10326     0.10717     0.10986     0.11089     0.11096     0.11112     0.11174     0.11246    
 0.11274     0.11258     0.11244     0.11258     0.11274     0.11246     0.11174     0.11112     0.11096     0.11089    
 0.10986     0.10717     0.10326     0.99718E-01 0.90251E-01 0.91848E-01 0.95944E-01 0.10087     0.10496     0.10740    
 0.10842     0.10874     0.10879     0.10858     0.10800     0.10730     0.10699     0.10730     0.10800     0.10858    
 0.10879     0.10874     0.10842     0.10740     0.10496     0.10087     0.95944E-01 0.91848E-01 0.79576E-01 0.80968E-01
 0.84609E-01 0.89197E-01 0.93359E-01 0.96265E-01 0.97790E-01 0.98214E-01 0.97842E-01 0.96887E-01 0.95619E-01 0.94506E-01
 0.94059E-01 0.94506E-01 0.95619E-01 0.96887E-01 0.97842E-01 0.98214E-01 0.97790E-01 0.96265E-01 0.93359E-01 0.89197E-01
 0.84609E-01 0.80968E-01 0.67089E-01 0.68036E-01 0.70590E-01 0.74017E-01 0.77427E-01 0.80096E-01 0.81647E-01 0.82019E-01
 0.81348E-01 0.79914E-01 0.78172E-01 0.76736E-01 0.76179E-01 0.76736E-01 0.78172E-01 0.79914E-01 0.81348E-01 0.82019E-01
 0.81647E-01 0.80096E-01 0.77427E-01 0.74017E-01 0.70590E-01 0.68036E-01 0.54788E-01 0.55242E-01 0.56571E-01 0.58605E-01
 0.60928E-01 0.62967E-01 0.64229E-01 0.64479E-01 0.63736E-01 0.62221E-01 0.60371E-01 0.58827E-01 0.58222E-01 0.58827E-01
 0.60371E-01 0.62221E-01 0.63736E-01 0.64479E-01 0.64229E-01 0.62967E-01 0.60928E-01 0.58605E-01 0.56571E-01 0.55242E-01
 0.44701E-01 0.44776E-01 0.45115E-01 0.45900E-01 0.47090E-01 0.48355E-01 0.49278E-01 0.49573E-01 0.49148E-01 0.48087E-01
 0.46686E-01 0.45468E-01 0.44982E-01 0.45468E-01 0.46686E-01 0.48087E-01 0.49148E-01 0.49573E-01 0.49278E-01 0.48355E-01
 0.47090E-01 0.45900E-01 0.45115E-01 0.44776E-01 0.37578E-01 0.37423E-01 0.37095E-01 0.36893E-01 0.37048E-01 0.37567E-01
 0.38259E-01 0.38862E-01 0.39173E-01 0.39125E-01 0.38817E-01 0.38472E-01 0.38323E-01 0.38472E-01 0.38817E-01 0.39125E-01
 0.39173E-01 0.38862E-01 0.38259E-01 0.37567E-01 0.37048E-01 0.36893E-01 0.37095E-01 0.37423E-01 0.32174E-01 0.31883E-01
 0.31133E-01 0.30248E-01 0.29627E-01 0.29557E-01 0.30080E-01 0.31025E-01 0.32170E-01 0.33354E-01 0.34442E-01 0.35243E-01
 0.35542E-01 0.35243E-01 0.34442E-01 0.33354E-01 0.32170E-01 0.31025E-01 0.30080E-01 0.29557E-01 0.29627E-01 0.30248E-01
 0.31133E-01 0.31883E-01 0.26148E-01 0.25791E-01 0.24852E-01 0.23683E-01 0.22723E-01 0.22314E-01 0.22593E-01 0.23532E-01
 0.25041E-01 0.26969E-01 0.28998E-01 0.30595E-01 0.31208E-01 0.30595E-01 0.28998E-01 0.26969E-01 0.25041E-01 0.23532E-01
 0.22593E-01 0.22314E-01 0.22723E-01 0.23683E-01 0.24852E-01 0.25791E-01 0.18507E-01 0.18169E-01 0.17311E-01 0.16297E-01
 0.15456E-01 0.14958E-01 0.14880E-01 0.15327E-01 0.16421E-01 0.18133E-01 0.20109E-01 0.21718E-01 0.22341E-01 0.21718E-01
 0.20109E-01 0.18133E-01 0.16421E-01 0.15327E-01 0.14880E-01 0.14958E-01 0.15456E-01 0.16297E-01 0.17311E-01 0.18169E-01
 0.11308E-01 0.11046E-01 0.10431E-01 0.97845E-02 0.92704E-02 0.88271E-02 0.84064E-02 0.81866E-02 0.84718E-02 0.93782E-02
 0.10644E-01 0.11739E-01 0.12170E-01 0.11739E-01 0.10644E-01 0.93782E-02 0.84718E-02 0.81866E-02 0.84064E-02 0.88271E-02
 0.92704E-02 0.97845E-02 0.10431E-01 0.11046E-01 0.11308E-01 0.11046E-01 0.10431E-01 0.97845E-02 0.92704E-02 0.88271E-02
 0.84064E-02 0.81866E-02 0.84718E-02 0.93782E-02 0.10644E-01 0.11739E-01 0.12170E-01 0.11739E-01 0.10644E-01 0.93782E-02
 0.84718E-02 0.81866E-02 0.84064E-02 0.88271E-02 0.92704E-02 0.97845E-02 0.10431E-01 0.11046E-01 0.13692E-01 0.13426E-01
 0.12781E-01 0.12069E-01 0.11478E-01 0.11012E-01 0.10675E-01 0.10651E-01 0.11198E-01 0.12372E-01 0.13862E-01 0.15107E-01
 0.15591E-01 0.15107E-01 0.13862E-01 0.12372E-01 0.11198E-01 0.10651E-01 0.10675E-01 0.11012E-01 0.11478E-01 0.12069E-01
 0.12781E-01 0.13426E-01 0.19561E-01 0.19298E-01 0.18629E-01 0.17823E-01 0.17120E-01 0.16656E-01 0.16544E-01 0.16940E-01
 0.17981E-01 0.19602E-01 0.21432E-01 0.22891E-01 0.23448E-01 0.22891E-01 0.21432E-01 0.19602E-01 0.17981E-01 0.16940E-01
 0.16544E-01 0.16656E-01 0.17120E-01 0.17823E-01 0.18629E-01 0.19298E-01 0.26346E-01 0.26126E-01 0.25550E-01 0.24829E-01
 0.24221E-01 0.23940E-01 0.24116E-01 0.24808E-01 0.26007E-01 0.27588E-01 0.29249E-01 0.30537E-01 0.31025E-01 0.30537E-01
 0.29249E-01 0.27588E-01 0.26007E-01 0.24808E-01 0.24116E-01 0.23940E-01 0.24221E-01 0.24829E-01 0.25550E-01 0.26126E-01
 0.32663E-01 0.32533E-01 0.32216E-01 0.31895E-01 0.31766E-01 0.31938E-01 0.32396E-01 0.33050E-01 0.33809E-01 0.34604E-01
 0.35349E-01 0.35903E-01 0.36110E-01 0.35903E-01 0.35349E-01 0.34604E-01 0.33809E-01 0.33050E-01 0.32396E-01 0.31938E-01
 0.31766E-01 0.31895E-01 0.32216E-01 0.32533E-01 0.39441E-01 0.39453E-01 0.39577E-01 0.39972E-01 0.40680E-01 0.41539E-01
 0.42279E-01 0.42686E-01 0.42685E-01 0.42342E-01 0.41830E-01 0.41380E-01 0.41202E-01 0.41380E-01 0.41830E-01 0.42342E-01
 0.42685E-01 0.42686E-01 0.42279E-01 0.41539E-01 0.40680E-01 0.39972E-01 0.39577E-01 0.39453E-01 0.48784E-01 0.49035E-01
 0.49832E-01 0.51195E-01 0.52919E-01 0.54561E-01 0.55658E-01 0.55945E-01 0.55409E-01 0.54241E-01 0.52809E-01 0.51622E-01
 0.51158E-01 0.51622E-01 0.52809E-01 0.54241E-01 0.55409E-01 0.55945E-01 0.55658E-01 0.54561E-01 0.52919E-01 0.51195E-01
 0.49832E-01 0.49035E-01 0.61926E-01 0.62537E-01 0.64257E-01 0.66741E-01 0.69451E-01 0.71803E-01 0.73341E-01 0.73855E-01
 0.73375E-01 0.72139E-01 0.70585E-01 0.69293E-01 0.68789E-01 0.69293E-01 0.70585E-01 0.72139E-01 0.73375E-01 0.73855E-01
 0.73341E-01 0.71803E-01 0.69451E-01 0.66741E-01 0.64257E-01 0.62537E-01 0.78050E-01 0.79074E-01 0.81791E-01 0.85346E-01
 0.88831E-01 0.91641E-01 0.93541E-01 0.94521E-01 0.94668E-01 0.94157E-01 0.93302E-01 0.92528E-01 0.92218E-01 0.92528E-01
 0.93302E-01 0.94157E-01 0.94668E-01 0.94521E-01 0.93541E-01 0.91641E-01 0.88831E-01 0.85346E-01 0.81791E-01 0.79074E-01
 0.94735E-01 0.96054E-01 0.99466E-01 0.10369     0.10751     0.11034     0.11227     0.11366     0.11472     0.11543    
 0.11577     0.11583     0.11582     0.11583     0.11577     0.11543     0.11472     0.11366     0.11227     0.11034    
 0.10751     0.10369     0.99466E-01 0.96054E-01 0.10953     0.11087     0.11429     0.11837     0.12177     0.12402    
 0.12556     0.12715     0.12910     0.13112     0.13269     0.13356     0.13382     0.13356     0.13269     0.13112    
 0.12910     0.12715     0.12556     0.12402     0.12177     0.11837     0.11429     0.11087     0.12150     0.12252    
 0.12507     0.12788     0.12989     0.13095     0.13185     0.13355     0.13630     0.13943     0.14198     0.14347    
 0.14392     0.14347     0.14198     0.13943     0.13630     0.13355     0.13185     0.13095     0.12989     0.12788    
 0.12507     0.12252     0.13147     0.13187     0.13271     0.13321     0.13295     0.13240     0.13267     0.13465    
 0.13820     0.14227     0.14561     0.14759     0.14821     0.14759     0.14561     0.14227     0.13820     0.13465    
 0.13267     0.13240     0.13295     0.13321     0.13271     0.13187     0.14054     0.14012     0.13876     0.13641    
 0.13355     0.13137     0.13118     0.13360     0.13803     0.14302     0.14714     0.14964     0.15046     0.14964    
 0.14714     0.14302     0.13803     0.13360     0.13118     0.13137     0.13355     0.13641     0.13876     0.14012    
 0.14824     0.14703     0.14361     0.13874     0.13375     0.13030     0.12974     0.13248     0.13761     0.14341    
 0.14826     0.15126     0.15225     0.15126     0.14826     0.14341     0.13761     0.13248     0.12974     0.13030    
 0.13375     0.13874     0.14361     0.14703     0.15265     0.15094     0.14629     0.14004     0.13394     0.12979    
 0.12885     0.13144     0.13663     0.14267     0.14781     0.15105     0.15212     0.15105     0.14781     0.14267    
 0.13663     0.13144     0.12885     0.12979     0.13394     0.14004     0.14629     0.15094     0.15274     0.15097    
 0.14619     0.13983     0.13365     0.12932     0.12799     0.12994     0.13440     0.13981     0.14455     0.14760    
 0.14862     0.14760     0.14455     0.13981     0.13440     0.12994     0.12799     0.12932     0.13365     0.13983    
 0.14619     0.15097     0.15033     0.14876     0.14450     0.13870     0.13292     0.12868     0.12704     0.12826    
 0.13169     0.13606     0.14003     0.14266     0.14357     0.14266     0.14003     0.13606     0.13169     0.12826    
 0.12704     0.12868     0.13292     0.13870     0.14450     0.14876     0.14892     0.14749     0.14354     0.13807    
 0.13253     0.12835     0.12659     0.12749     0.13044     0.13430     0.13787     0.14030     0.14115     0.14030    
 0.13787     0.13430     0.13044     0.12749     0.12659     0.12835     0.13253     0.13807     0.14354     0.14749    
 0.15033     0.14876     0.14450     0.13870     0.13292     0.12868     0.12704     0.12826     0.13169     0.13606    
 0.14003     0.14266     0.14357     0.14266     0.14003     0.13606     0.13169     0.12826     0.12704     0.12868    
 0.13292     0.13870     0.14450     0.14876     0.15274     0.15097     0.14619     0.13983     0.13365     0.12932    
 0.12799     0.12994     0.13440     0.13981     0.14455     0.14760     0.14862     0.14760     0.14455     0.13981    
 0.13440     0.12994     0.12799     0.12932     0.13365     0.13983     0.14619     0.15097     0.15265     0.15094    
 0.14629     0.14004     0.13394     0.12979     0.12885     0.13144     0.13663     0.14267     0.14781     0.15105    
 0.15212     0.15105     0.14781     0.14267     0.13663     0.13144     0.12885     0.12979     0.13394     0.14004    
 0.14629     0.15094     0.14824     0.14703     0.14361     0.13874     0.13375     0.13030     0.12974     0.13248    
 0.13761     0.14341     0.14826     0.15126     0.15225     0.15126     0.14826     0.14341     0.13761     0.13248    
 0.12974     0.13030     0.13375     0.13874     0.14361     0.14703     0.14054     0.14012     0.13876     0.13641    
 0.13355     0.13137     0.13118     0.13360     0.13803     0.14302     0.14714     0.14964     0.15046     0.14964    
 0.14714     0.14302     0.13803     0.13360     0.13118     0.13137     0.13355     0.13641     0.13876     0.14012    
 0.13147     0.13187     0.13271     0.13321     0.13295     0.13240     0.13267     0.13465     0.13820     0.14227    
 0.14561     0.14759     0.14821     0.14759     0.14561     0.14227     0.13820     0.13465     0.13267     0.13240    
 0.13295     0.13321     0.13271     0.13187     0.12150     0.12252     0.12507     0.12788     0.12989     0.13095    
 0.13185     0.13355     0.13630     0.13943     0.14198     0.14347     0.14392     0.14347     0.14198     0.13943    
 0.13630     0.13355     0.13185     0.13095     0.12989     0.12788     0.12507     0.12252     0.10953     0.11087    
 0.11429     0.11837     0.12177     0.12402     0.12556     0.12715     0.12910     0.13112     0.13269     0.13356    
 0.13382     0.13356     0.13269     0.13112     0.12910     0.12715     0.12556     0.12402     0.12177     0.11837    
 0.11429     0.11087     0.94735E-01 0.96054E-01 0.99466E-01 0.10369     0.10751     0.11034     0.11227     0.11366    
 0.11472     0.11543     0.11577     0.11583     0.11582     0.11583     0.11577     0.11543     0.11472     0.11366    
 0.11227     0.11034     0.10751     0.10369     0.99466E-01 0.96054E-01 0.78050E-01 0.79074E-01 0.81791E-01 0.85346E-01
 0.88831E-01 0.91641E-01 0.93541E-01 0.94521E-01 0.94668E-01 0.94157E-01 0.93302E-01 0.92528E-01 0.92218E-01 0.92528E-01
 0.93302E-01 0.94157E-01 0.94668E-01 0.94521E-01 0.93541E-01 0.91641E-01 0.88831E-01 0.85346E-01 0.81791E-01 0.79074E-01
 0.61926E-01 0.62537E-01 0.64257E-01 0.66741E-01 0.69451E-01 0.71803E-01 0.73341E-01 0.73855E-01 0.73375E-01 0.72139E-01
 0.70585E-01 0.69293E-01 0.68789E-01 0.69293E-01 0.70585E-01 0.72139E-01 0.73375E-01 0.73855E-01 0.73341E-01 0.71803E-01
 0.69451E-01 0.66741E-01 0.64257E-01 0.62537E-01 0.48784E-01 0.49035E-01 0.49832E-01 0.51195E-01 0.52919E-01 0.54561E-01
 0.55658E-01 0.55945E-01 0.55409E-01 0.54241E-01 0.52809E-01 0.51622E-01 0.51158E-01 0.51622E-01 0.52809E-01 0.54241E-01
 0.55409E-01 0.55945E-01 0.55658E-01 0.54561E-01 0.52919E-01 0.51195E-01 0.49832E-01 0.49035E-01 0.39441E-01 0.39453E-01
 0.39577E-01 0.39972E-01 0.40680E-01 0.41539E-01 0.42279E-01 0.42686E-01 0.42685E-01 0.42342E-01 0.41830E-01 0.41380E-01
 0.41202E-01 0.41380E-01 0.41830E-01 0.42342E-01 0.42685E-01 0.42686E-01 0.42279E-01 0.41539E-01 0.40680E-01 0.39972E-01
 0.39577E-01 0.39453E-01 0.32663E-01 0.32533E-01 0.32216E-01 0.31895E-01 0.31766E-01 0.31938E-01 0.32396E-01 0.33050E-01
 0.33809E-01 0.34604E-01 0.35349E-01 0.35903E-01 0.36110E-01 0.35903E-01 0.35349E-01 0.34604E-01 0.33809E-01 0.33050E-01
 0.32396E-01 0.31938E-01 0.31766E-01 0.31895E-01 0.32216E-01 0.32533E-01 0.26346E-01 0.26126E-01 0.25550E-01 0.24829E-01
 0.24221E-01 0.23940E-01 0.24116E-01 0.24808E-01 0.26007E-01 0.27588E-01 0.29249E-01 0.30537E-01 0.31025E-01 0.30537E-01
 0.29249E-01 0.27588E-01 0.26007E-01 0.24808E-01 0.24116E-01 0.23940E-01 0.24221E-01 0.24829E-01 0.25550E-01 0.26126E-01
 0.19561E-01 0.19298E-01 0.18629E-01 0.17823E-01 0.17120E-01 0.16656E-01 0.16544E-01 0.16940E-01 0.17981E-01 0.19602E-01
 0.21432E-01 0.22891E-01 0.23448E-01 0.22891E-01 0.21432E-01 0.19602E-01 0.17981E-01 0.16940E-01 0.16544E-01 0.16656E-01
 0.17120E-01 0.17823E-01 0.18629E-01 0.19298E-01 0.13692E-01 0.13426E-01 0.12781E-01 0.12069E-01 0.11478E-01 0.11012E-01
 0.10675E-01 0.10651E-01 0.11198E-01 0.12372E-01 0.13862E-01 0.15107E-01 0.15591E-01 0.15107E-01 0.13862E-01 0.12372E-01
 0.11198E-01 0.10651E-01 0.10675E-01 0.11012E-01 0.11478E-01 0.12069E-01 0.12781E-01 0.13426E-01 0.18507E-01 0.18169E-01
 0.17311E-01 0.16297E-01 0.15456E-01 0.14958E-01 0.14880E-01 0.15327E-01 0.16421E-01 0.18133E-01 0.20109E-01 0.21718E-01
 0.22341E-01 0.21718E-01 0.20109E-01 0.18133E-01 0.16421E-01 0.15327E-01 0.14880E-01 0.14958E-01 0.15456E-01 0.16297E-01
 0.17311E-01 0.18169E-01 0.19561E-01 0.19298E-01 0.18629E-01 0.17823E-01 0.17120E-01 0.16656E-01 0.16544E-01 0.16940E-01
 0.17981E-01 0.19602E-01 0.21432E-01 0.22891E-01 0.23448E-01 0.22891E-01 0.21432E-01 0.19602E-01 0.17981E-01 0.16940E-01
 0.16544E-01 0.16656E-01 0.17120E-01 0.17823E-01 0.18629E-01 0.19298E-01 0.22707E-01 0.22627E-01 0.22421E-01 0.22149E-01
 0.21844E-01 0.21553E-01 0.21427E-01 0.21702E-01 0.22537E-01 0.23839E-01 0.25253E-01 0.26331E-01 0.26731E-01 0.26331E-01
 0.25253E-01 0.23839E-01 0.22537E-01 0.21702E-01 0.21427E-01 0.21553E-01 0.21844E-01 0.22149E-01 0.22421E-01 0.22627E-01
 0.27972E-01 0.28095E-01 0.28426E-01 0.28843E-01 0.29180E-01 0.29335E-01 0.29376E-01 0.29514E-01 0.29927E-01 0.30606E-01
 0.31354E-01 0.31919E-01 0.32127E-01 0.31919E-01 0.31354E-01 0.30606E-01 0.29927E-01 0.29514E-01 0.29376E-01 0.29335E-01
 0.29180E-01 0.28843E-01 0.28426E-01 0.28095E-01 0.35737E-01 0.36037E-01 0.36874E-01 0.38050E-01 0.39253E-01 0.40167E-01
 0.40625E-01 0.40678E-01 0.40518E-01 0.40331E-01 0.40205E-01 0.40146E-01 0.40130E-01 0.40146E-01 0.40205E-01 0.40331E-01
 0.40518E-01 0.40678E-01 0.40625E-01 0.40167E-01 0.39253E-01 0.38050E-01 0.36874E-01 0.36037E-01 0.47117E-01 0.47589E-01
 0.48940E-01 0.50933E-01 0.53128E-01 0.54977E-01 0.56049E-01 0.56214E-01 0.55652E-01 0.54715E-01 0.53763E-01 0.53077E-01
 0.52829E-01 0.53077E-01 0.53763E-01 0.54715E-01 0.55652E-01 0.56214E-01 0.56049E-01 0.54977E-01 0.53128E-01 0.50933E-01
 0.48940E-01 0.47589E-01 0.63680E-01 0.64357E-01 0.66269E-01 0.69052E-01 0.72123E-01 0.74823E-01 0.76628E-01 0.77320E-01
 0.77014E-01 0.76056E-01 0.74897E-01 0.73979E-01 0.73632E-01 0.73979E-01 0.74897E-01 0.76056E-01 0.77014E-01 0.77320E-01
 0.76628E-01 0.74823E-01 0.72123E-01 0.69052E-01 0.66269E-01 0.64357E-01 0.86120E-01 0.87010E-01 0.89429E-01 0.92761E-01
 0.96307E-01 0.99521E-01 0.10207     0.10382     0.10474     0.10499     0.10482     0.10454     0.10442     0.10454    
 0.10482     0.10499     0.10474     0.10382     0.10207     0.99521E-01 0.96307E-01 0.92761E-01 0.89429E-01 0.87010E-01
 0.11290     0.11391     0.11656     0.11998     0.12345     0.12671     0.12985     0.13296     0.13593     0.13853    
 0.14055     0.14183     0.14227     0.14183     0.14055     0.13853     0.13593     0.13296     0.12985     0.12671    
 0.12345     0.11998     0.11656     0.11391     0.14055     0.14149     0.14390     0.14686     0.14974     0.15260    
 0.15599     0.16035     0.16555     0.17094     0.17563     0.17881     0.17993     0.17881     0.17563     0.17094    
 0.16555     0.16035     0.15599     0.15260     0.14974     0.14686     0.14390     0.14149     0.16592     0.16656    
 0.16818     0.17013     0.17204     0.17424     0.17760     0.18284     0.18986     0.19758     0.20444     0.20908    
 0.21071     0.20908     0.20444     0.19758     0.18986     0.18284     0.17760     0.17424     0.17204     0.17013    
 0.16818     0.16656     0.18827     0.18841     0.18876     0.18923     0.18996     0.19154     0.19495     0.20092    
 0.20918     0.21830     0.22632     0.23166     0.23351     0.23166     0.22632     0.21830     0.20918     0.20092    
 0.19495     0.19154     0.18996     0.18923     0.18876     0.18841     0.20898     0.20850     0.20732     0.20612    
 0.20576     0.20718     0.21122     0.21818     0.22735     0.23707     0.24536     0.25075     0.25260     0.25075    
 0.24536     0.23707     0.22735     0.21818     0.21122     0.20718     0.20576     0.20612     0.20732     0.20850    
 0.22906     0.22802     0.22550     0.22302     0.22227     0.22442     0.22990     0.23825     0.24819     0.25797    
 0.26591     0.27093     0.27263     0.27093     0.26591     0.25797     0.24819     0.23825     0.22990     0.22442    
 0.22227     0.22302     0.22550     0.22802     0.24723     0.24590     0.24285     0.24031     0.24050     0.24451    
 0.25208     0.26189     0.27221     0.28144     0.28843     0.29266     0.29406     0.29266     0.28843     0.28144    
 0.27221     0.26189     0.25208     0.24451     0.24050     0.24031     0.24285     0.24590     0.26069     0.25953    
 0.25720     0.25626     0.25893     0.26579     0.27566     0.28648     0.29638     0.30416     0.30944     0.31237    
 0.31330     0.31237     0.30944     0.30416     0.29638     0.28648     0.27566     0.26579     0.25893     0.25626    
 0.25720     0.25953     0.26790     0.26733     0.26675     0.26859     0.27464     0.28469     0.29662     0.30780    
 0.31641     0.32196     0.32497     0.32632     0.32669     0.32632     0.32497     0.32196     0.31641     0.30780    
 0.29662     0.28469     0.27464     0.26859     0.26675     0.26733     0.27020     0.27029     0.27154     0.27604    
 0.28504     0.29762     0.31098     0.32207     0.32922     0.33262     0.33362     0.33363     0.33354     0.33363    
 0.33362     0.33262     0.32922     0.32207     0.31098     0.29762     0.28504     0.27604     0.27154     0.27029    
 0.27047     0.27085     0.27288     0.27848     0.28865     0.30219     0.31606     0.32706     0.33357     0.33608    
 0.33625     0.33573     0.33547     0.33573     0.33625     0.33608     0.33357     0.32706     0.31606     0.30219    
 0.28865     0.27848     0.27288     0.27085     0.27020     0.27029     0.27154     0.27604     0.28504     0.29762    
 0.31098     0.32207     0.32922     0.33262     0.33362     0.33363     0.33354     0.33363     0.33362     0.33262    
 0.32922     0.32207     0.31098     0.29762     0.28504     0.27604     0.27154     0.27029     0.26790     0.26733    
 0.26675     0.26859     0.27464     0.28469     0.29662     0.30780     0.31641     0.32196     0.32497     0.32632    
 0.32669     0.32632     0.32497     0.32196     0.31641     0.30780     0.29662     0.28469     0.27464     0.26859    
 0.26675     0.26733     0.26069     0.25953     0.25720     0.25626     0.25893     0.26579     0.27566     0.28648    
 0.29638     0.30416     0.30944     0.31237     0.31330     0.31237     0.30944     0.30416     0.29638     0.28648    
 0.27566     0.26579     0.25893     0.25626     0.25720     0.25953     0.24723     0.24590     0.24285     0.24031    
 0.24050     0.24451     0.25208     0.26189     0.27221     0.28144     0.28843     0.29266     0.29406     0.29266    
 0.28843     0.28144     0.27221     0.26189     0.25208     0.24451     0.24050     0.24031     0.24285     0.24590    
 0.22906     0.22802     0.22550     0.22302     0.22227     0.22442     0.22990     0.23825     0.24819     0.25797    
 0.26591     0.27093     0.27263     0.27093     0.26591     0.25797     0.24819     0.23825     0.22990     0.22442    
 0.22227     0.22302     0.22550     0.22802     0.20898     0.20850     0.20732     0.20612     0.20576     0.20718    
 0.21122     0.21818     0.22735     0.23707     0.24536     0.25075     0.25260     0.25075     0.24536     0.23707    
 0.22735     0.21818     0.21122     0.20718     0.20576     0.20612     0.20732     0.20850     0.18827     0.18841    
 0.18876     0.18923     0.18996     0.19154     0.19495     0.20092     0.20918     0.21830     0.22632     0.23166    
 0.23351     0.23166     0.22632     0.21830     0.20918     0.20092     0.19495     0.19154     0.18996     0.18923    
 0.18876     0.18841     0.16592     0.16656     0.16818     0.17013     0.17204     0.17424     0.17760     0.18284    
 0.18986     0.19758     0.20444     0.20908     0.21071     0.20908     0.20444     0.19758     0.18986     0.18284    
 0.17760     0.17424     0.17204     0.17013     0.16818     0.16656     0.14055     0.14149     0.14390     0.14686    
 0.14974     0.15260     0.15599     0.16035     0.16555     0.17094     0.17563     0.17881     0.17993     0.17881    
 0.17563     0.17094     0.16555     0.16035     0.15599     0.15260     0.14974     0.14686     0.14390     0.14149    
 0.11290     0.11391     0.11656     0.11998     0.12345     0.12671     0.12985     0.13296     0.13593     0.13853    
 0.14055     0.14183     0.14227     0.14183     0.14055     0.13853     0.13593     0.13296     0.12985     0.12671    
 0.12345     0.11998     0.11656     0.11391     0.86120E-01 0.87010E-01 0.89429E-01 0.92761E-01 0.96307E-01 0.99521E-01
 0.10207     0.10382     0.10474     0.10499     0.10482     0.10454     0.10442     0.10454     0.10482     0.10499    
 0.10474     0.10382     0.10207     0.99521E-01 0.96307E-01 0.92761E-01 0.89429E-01 0.87010E-01 0.63680E-01 0.64357E-01