Screening bandgap                       
   1.00000000000000     
     2.650000    0.000000    0.000000
     0.000000    4.000000    0.000000
     0.000000    0.000000    4.000000
   C 
     2
Direct
  0.273585  0.500000  0.500000
  0.726415  0.500000  0.500000
 
   24   36   36
 0.82814426166E-02 0.80646622961E-02 0.75801350681E-02 0.71231068511E-02 0.67768578672E-02
 0.63756770342E-02 0.58120507852E-02 0.52837379422E-02 0.51615720154E-02 0.56283513922E-02
 0.64830515842E-02 0.72749393617E-02 0.75921725083E-02 0.72749393380E-02 0.64830515784E-02
 0.56283514406E-02 0.51615721063E-02 0.52837380248E-02 0.58120508193E-02 0.63756770290E-02
 0.67768578699E-02 0.71231068983E-02 0.75801351486E-02 0.80646623591E-02 0.11307518089E-01
 0.11046453113E-01 0.10431048509E-01 0.97845282985E-02 0.92704044220E-02 0.88270656534E-02
 0.84064489678E-02 0.81866473558E-02 0.84717773560E-02 0.93782468948E-02 0.10643629672E-01
 0.11739312986E-01 0.12170372669E-01 0.11739312971E-01 0.10643629679E-01 0.93782469540E-02
 0.84717774550E-02 0.81866474452E-02 0.84064490076E-02 0.88270656497E-02 0.92704044185E-02
 0.97845283320E-02 0.10431048574E-01 0.11046453166E-01 0.18507460173E-01 0.18168655498E-01
 0.17311473220E-01 0.16297091062E-01 0.15455621427E-01 0.14958118383E-01 0.14880412596E-01
 0.15326790482E-01 0.16421155409E-01 0.18132887796E-01 0.20108958041E-01 0.21718144497E-01
 0.22340673885E-01 0.21718144500E-01 0.20108958073E-01 0.18132887875E-01 0.16421155520E-01
 0.15326790580E-01 0.14880412642E-01 0.14958118378E-01 0.15455621406E-01 0.16297091063E-01
 0.17311473247E-01 0.18168655525E-01 0.26148497611E-01 0.25791033393E-01 0.24851681054E-01
 0.23683453535E-01 0.22723422161E-01 0.22313722812E-01 0.22592788195E-01 0.23532396503E-01
 0.25040616281E-01 0.26968539948E-01 0.28997760461E-01 0.30595313234E-01 0.31207884940E-01
 0.30595313253E-01 0.28997760511E-01 0.26968540034E-01 0.25040616386E-01 0.23532396589E-01
 0.22592788231E-01 0.22313722795E-01 0.22723422119E-01 0.23683453502E-01 0.24851681045E-01
 0.25791033396E-01 0.32173778709E-01 0.31883429445E-01 0.31133483066E-01 0.30248030229E-01
 0.29626929522E-01 0.29557310019E-01 0.30080320743E-01 0.31025407826E-01 0.32170449379E-01
 0.33354180970E-01 0.34441655313E-01 0.35242559758E-01 0.35542381741E-01 0.35242559776E-01
 0.34441655352E-01 0.33354181029E-01 0.32170449445E-01 0.31025407874E-01 0.30080320751E-01
 0.29557309985E-01 0.29626929468E-01 0.30248030181E-01 0.31133483040E-01 0.31883429437E-01
 0.37577694209E-01 0.37422749717E-01 0.37094855142E-01 0.36893244460E-01 0.37047993491E-01
 0.37567297589E-01 0.38259063918E-01 0.38861751999E-01 0.39172622043E-01 0.39125295442E-01
 0.38817045800E-01 0.38471590516E-01 0.38323004446E-01 0.38471590517E-01 0.38817045806E-01
 0.39125295452E-01 0.39172622054E-01 0.38861752000E-01 0.38259063898E-01 0.37567297547E-01
 0.37047993440E-01 0.36893244420E-01 0.37094855120E-01 0.37422749710E-01 0.44700628846E-01
 0.44775577973E-01 0.45115067635E-01 0.45899897720E-01 0.47089992308E-01 0.48355305389E-01
 0.49277660613E-01 0.49572561820E-01 0.49147843133E-01 0.48086579811E-01 0.46686179863E-01
 0.45467893506E-01 0.44981516489E-01 0.45467893497E-01 0.46686179847E-01 0.48086579795E-01
 0.49147843118E-01 0.49572561805E-01 0.49277660592E-01 0.48355305359E-01 0.47089992274E-01
 0.45899897692E-01 0.45115067619E-01 0.44775577967E-01 0.54788400394E-01 0.55241629584E-01
 0.56570805351E-01 0.58604657182E-01 0.60928497626E-01 0.62967414527E-01 0.64228996779E-01
 0.64478747162E-01 0.63736495018E-01 0.62221455300E-01 0.60370547722E-01 0.58826795949E-01
 0.58222314022E-01 0.58826795959E-01 0.60370547741E-01 0.62221455325E-01 0.63736495047E-01
 0.64478747190E-01 0.64228996797E-01 0.62967414527E-01 0.60928497609E-01 0.58604657156E-01
 0.56570805327E-01 0.55241629571E-01 0.67089390808E-01 0.68035683161E-01 0.70590118518E-01
 0.74017273571E-01 0.77427065494E-01 0.80096495536E-01 0.81647097574E-01 0.82018757652E-01
 0.81348257193E-01 0.79914059416E-01 0.78172107534E-01 0.76736377923E-01 0.76178611096E-01
 0.76736377985E-01 0.78172107641E-01 0.79914059545E-01 0.81348257322E-01 0.82018757766E-01
 0.81647097656E-01 0.80096495576E-01 0.77427065492E-01 0.74017273541E-01 0.70590118481E-01
 0.68035683138E-01 0.79575543893E-01 0.80967844183E-01 0.84609403629E-01 0.89197316333E-01
 0.93358522773E-01 0.96265022829E-01 0.97789751438E-01 0.98213651425E-01 0.97842373412E-01
 0.96886613629E-01 0.95619200588E-01 0.94506262928E-01 0.94059375109E-01 0.94506263044E-01
 0.95619200786E-01 0.96886613859E-01 0.97842373634E-01 0.98213651613E-01 0.97789751575E-01
 0.96265022907E-01 0.93358522795E-01 0.89197316317E-01 0.84609403600E-01 0.80967844163E-01
 0.90250514191E-01 0.91847649502E-01 0.95944087335E-01 0.10087111641E+00 0.10495798390E+00
 0.10739862751E+00 0.10842348335E+00 0.10873601925E+00 0.10879037585E+00 0.10857600740E+00
 0.10799917156E+00 0.10730406444E+00 0.10698625089E+00 0.10730406457E+00 0.10799917178E+00
 0.10857600766E+00 0.10879037609E+00 0.10873601945E+00 0.10842348350E+00 0.10739862761E+00
 0.10495798396E+00 0.10087111645E+00 0.95944087353E-01 0.91847649509E-01 0.98284212706E-01
 0.99717769097E-01 0.10326342848E+00 0.10717006275E+00 0.10985940493E+00 0.11088507497E+00
 0.11096351712E+00 0.11111729143E+00 0.11174433081E+00 0.11245900833E+00 0.11273961180E+00
 0.11258390825E+00 0.11244143072E+00 0.11258390835E+00 0.11273961197E+00 0.11245900852E+00
 0.11174433098E+00 0.11111729158E+00 0.11096351725E+00 0.11088507510E+00 0.10985940505E+00
 0.10717006286E+00 0.10326342856E+00 0.99717769143E-01 0.10431315915E+00 0.10516579022E+00
 0.10701315575E+00 0.10834401425E+00 0.10815360573E+00 0.10677902439E+00 0.10554980192E+00
 0.10562114643E+00 0.10706705929E+00 0.10899588138E+00 0.11044413990E+00 0.11110833850E+00
 0.11125970601E+00 0.11110833855E+00 0.11044413998E+00 0.10899588146E+00 0.10706705937E+00
 0.10562114651E+00 0.10554980201E+00 0.10677902451E+00 0.10815360587E+00 0.10834401439E+00
 0.10701315587E+00 0.10516579029E+00 0.10935755781E+00 0.10925145019E+00 0.10841675052E+00
 0.10594152703E+00 0.10176518052E+00 0.97230010620E-01 0.94325259426E-01 0.94289895483E-01
 0.96809519834E-01 0.10041401313E+00 0.10357628777E+00 0.10550969898E+00 0.10612963694E+00
 0.10550969899E+00 0.10357628779E+00 0.10041401316E+00 0.96809519860E-01 0.94289895510E-01
 0.94325259470E-01 0.97230010698E-01 0.10176518063E+00 0.10594152716E+00 0.10841675063E+00
 0.10925145025E+00 0.11315549298E+00 0.11190775782E+00 0.10797598859E+00 0.10128590552E+00
 0.92796390439E-01 0.84749864011E-01 0.79746433766E-01 0.79267242924E-01 0.82831604821E-01
 0.88429371648E-01 0.93778724665E-01 0.97362152116E-01 0.98590810545E-01 0.97362152122E-01
 0.93778724684E-01 0.88429371678E-01 0.82831604850E-01 0.79267242939E-01 0.79746433771E-01
 0.84749864025E-01 0.92796390475E-01 0.10128590557E+00 0.10797598863E+00 0.11190775784E+00
 0.11405524895E+00 0.11181923730E+00 0.10522450473E+00 0.94910319030E-01 0.82597694408E-01
 0.71158966254E-01 0.63731822742E-01 0.62233066615E-01 0.66310945549E-01 0.73585388474E-01
 0.81000343393E-01 0.86206364051E-01 0.88040812858E-01 0.86206364074E-01 0.81000343442E-01
 0.73585388541E-01 0.66310945605E-01 0.62233066628E-01 0.63731822708E-01 0.71158966197E-01
 0.82597694355E-01 0.94910318996E-01 0.10522450471E+00 0.11181923729E+00 0.11124206074E+00
 0.10843928631E+00 0.10024496578E+00 0.87556759263E-01 0.72439005053E-01 0.58173226243E-01
 0.48376334318E-01 0.45429050976E-01 0.49229381514E-01 0.57258699377E-01 0.65948919067E-01
 0.72283416167E-01 0.74561604468E-01 0.72283416206E-01 0.65948919142E-01 0.57258699467E-01
 0.49229381577E-01 0.45429050972E-01 0.48376334241E-01 0.58173226124E-01 0.72439004937E-01
 0.87556759177E-01 0.10024496573E+00 0.10843928629E+00 0.10682354774E+00 0.10385487398E+00
 0.95081103876E-01 0.81270152849E-01 0.64518949140E-01 0.48373214156E-01 0.36821511316E-01
 0.32559015740E-01 0.35663186477E-01 0.43635432518E-01 0.52732268009E-01 0.59577077159E-01
 0.62081947441E-01 0.59577077204E-01 0.52732268090E-01 0.43635432606E-01 0.35663186524E-01
 0.32559015706E-01 0.36821511201E-01 0.48373213999E-01 0.64518948995E-01 0.81270152753E-01
 0.95081103829E-01 0.10385487397E+00 0.10469002904E+00 0.10171375898E+00 0.92850347734E-01
 0.78747240044E-01 0.61470093331E-01 0.44663958832E-01 0.32463179264E-01 0.27667234760E-01
 0.30409908353E-01 0.38224300362E-01 0.47350626960E-01 0.54311814940E-01 0.56878275532E-01
 0.54311814984E-01 0.47350627035E-01 0.38224300438E-01 0.30409908384E-01 0.27667234709E-01
 0.32463179133E-01 0.44663958665E-01 0.61470093184E-01 0.78747239952E-01 0.92850347697E-01
 0.10171375897E+00 0.10682354774E+00 0.10385487398E+00 0.95081103872E-01 0.81270152846E-01
 0.64518949139E-01 0.48373214158E-01 0.36821511322E-01 0.32559015749E-01 0.35663186488E-01
 0.43635432529E-01 0.52732268017E-01 0.59577077163E-01 0.62081947440E-01 0.59577077200E-01
 0.52732268084E-01 0.43635432600E-01 0.35663186521E-01 0.32559015707E-01 0.36821511206E-01
 0.48373214006E-01 0.64518949003E-01 0.81270152759E-01 0.95081103833E-01 0.10385487397E+00
 0.11124206073E+00 0.10843928630E+00 0.10024496578E+00 0.87556759257E-01 0.72439005052E-01
 0.58173226248E-01 0.48376334329E-01 0.45429050993E-01 0.49229381533E-01 0.57258699396E-01
 0.65948919081E-01 0.72283416174E-01 0.74561604466E-01 0.72283416199E-01 0.65948919132E-01
 0.57258699458E-01 0.49229381572E-01 0.45429050973E-01 0.48376334247E-01 0.58173226135E-01
 0.72439004949E-01 0.87556759188E-01 0.10024496574E+00 0.10843928629E+00 0.11405524895E+00
 0.11181923729E+00 0.10522450472E+00 0.94910319026E-01 0.82597694408E-01 0.71158966262E-01
 0.63731822757E-01 0.62233066635E-01 0.66310945573E-01 0.73585388496E-01 0.81000343409E-01
 0.86206364059E-01 0.88040812857E-01 0.86206364065E-01 0.81000343429E-01 0.73585388530E-01
 0.66310945598E-01 0.62233066627E-01 0.63731822714E-01 0.71158966206E-01 0.82597694366E-01
 0.94910319005E-01 0.10522450472E+00 0.11181923729E+00 0.11315549297E+00 0.11190775781E+00
 0.10797598858E+00 0.10128590552E+00 0.92796390442E-01 0.84749864021E-01 0.79746433782E-01
 0.79267242946E-01 0.82831604844E-01 0.88429371669E-01 0.93778724681E-01 0.97362152124E-01
 0.98590810544E-01 0.97362152114E-01 0.93778724671E-01 0.88429371667E-01 0.82831604842E-01
 0.79267242936E-01 0.79746433773E-01 0.84749864031E-01 0.92796390481E-01 0.10128590557E+00
 0.10797598863E+00 0.11190775784E+00 0.10935755781E+00 0.10925145019E+00 0.10841675052E+00
 0.10594152703E+00 0.10176518053E+00 0.97230010632E-01 0.94325259442E-01 0.94289895503E-01
 0.96809519854E-01 0.10041401315E+00 0.10357628778E+00 0.10550969899E+00 0.10612963694E+00
 0.10550969898E+00 0.10357628778E+00 0.10041401315E+00 0.96809519852E-01 0.94289895506E-01
 0.94325259469E-01 0.97230010699E-01 0.10176518063E+00 0.10594152716E+00 0.10841675062E+00
 0.10925145025E+00 0.10431315914E+00 0.10516579022E+00 0.10701315575E+00 0.10834401425E+00
 0.10815360574E+00 0.10677902440E+00 0.10554980194E+00 0.10562114645E+00 0.10706705931E+00
 0.10899588139E+00 0.11044413991E+00 0.11110833850E+00 0.11125970601E+00 0.11110833854E+00
 0.11044413997E+00 0.10899588146E+00 0.10706705937E+00 0.10562114650E+00 0.10554980201E+00
 0.10677902450E+00 0.10815360587E+00 0.10834401439E+00 0.10701315586E+00 0.10516579028E+00
 0.98284212705E-01 0.99717769099E-01 0.10326342849E+00 0.10717006276E+00 0.10985940494E+00
 0.11088507498E+00 0.11096351713E+00 0.11111729144E+00 0.11174433081E+00 0.11245900834E+00
 0.11273961180E+00 0.11258390825E+00 0.11244143071E+00 0.11258390835E+00 0.11273961196E+00
 0.11245900851E+00 0.11174433097E+00 0.11111729158E+00 0.11096351725E+00 0.11088507509E+00
 0.10985940505E+00 0.10717006285E+00 0.10326342856E+00 0.99717769139E-01 0.90250514191E-01
 0.91847649505E-01 0.95944087341E-01 0.10087111642E+00 0.10495798390E+00 0.10739862752E+00
 0.10842348335E+00 0.10873601926E+00 0.10879037586E+00 0.10857600740E+00 0.10799917156E+00
 0.10730406444E+00 0.10698625089E+00 0.10730406457E+00 0.10799917178E+00 0.10857600766E+00
 0.10879037609E+00 0.10873601945E+00 0.10842348350E+00 0.10739862761E+00 0.10495798396E+00
 0.10087111644E+00 0.95944087350E-01 0.91847649507E-01 0.79575543895E-01 0.80967844185E-01
 0.84609403633E-01 0.89197316339E-01 0.93358522779E-01 0.96265022835E-01 0.97789751442E-01
 0.98213651428E-01 0.97842373413E-01 0.96886613629E-01 0.95619200588E-01 0.94506262928E-01
 0.94059375109E-01 0.94506263044E-01 0.95619200787E-01 0.96886613861E-01 0.97842373637E-01
 0.98213651617E-01 0.97789751579E-01 0.96265022910E-01 0.93358522797E-01 0.89197316319E-01
 0.84609403601E-01 0.80967844164E-01 0.67089390810E-01 0.68035683162E-01 0.70590118519E-01
 0.74017273573E-01 0.77427065496E-01 0.80096495538E-01 0.81647097575E-01 0.82018757652E-01
 0.81348257192E-01 0.79914059415E-01 0.78172107533E-01 0.76736377922E-01 0.76178611095E-01
 0.76736377985E-01 0.78172107642E-01 0.79914059548E-01 0.81348257327E-01 0.82018757773E-01
 0.81647097664E-01 0.80096495584E-01 0.77427065499E-01 0.74017273547E-01 0.70590118486E-01
 0.68035683141E-01 0.54788400396E-01 0.55241629584E-01 0.56570805349E-01 0.58604657180E-01
 0.60928497624E-01 0.62967414525E-01 0.64228996777E-01 0.64478747161E-01 0.63736495017E-01
 0.62221455299E-01 0.60370547721E-01 0.58826795948E-01 0.58222314021E-01 0.58826795959E-01
 0.60370547741E-01 0.62221455328E-01 0.63736495053E-01 0.64478747198E-01 0.64228996806E-01
 0.62967414538E-01 0.60928497619E-01 0.58604657165E-01 0.56570805334E-01 0.55241629575E-01
 0.44700628848E-01 0.44775577972E-01 0.45115067632E-01 0.45899897717E-01 0.47089992305E-01
 0.48355305387E-01 0.49277660611E-01 0.49572561818E-01 0.49147843132E-01 0.48086579810E-01
 0.46686179861E-01 0.45467893505E-01 0.44981516487E-01 0.45467893496E-01 0.46686179847E-01
 0.48086579797E-01 0.49147843123E-01 0.49572561813E-01 0.49277660601E-01 0.48355305370E-01
 0.47089992284E-01 0.45899897701E-01 0.45115067626E-01 0.44775577972E-01 0.37577694211E-01
 0.37422749716E-01 0.37094855140E-01 0.36893244458E-01 0.37047993488E-01 0.37567297587E-01
 0.38259063916E-01 0.38861751997E-01 0.39172622042E-01 0.39125295440E-01 0.38817045799E-01
 0.38471590514E-01 0.38323004445E-01 0.38471590516E-01 0.38817045806E-01 0.39125295454E-01
 0.39172622058E-01 0.38861752006E-01 0.38259063905E-01 0.37567297556E-01 0.37047993448E-01
 0.36893244427E-01 0.37094855126E-01 0.37422749714E-01 0.32173778710E-01 0.31883429444E-01
 0.31133483065E-01 0.30248030227E-01 0.29626929520E-01 0.29557310017E-01 0.30080320741E-01
 0.31025407825E-01 0.32170449379E-01 0.33354180969E-01 0.34441655312E-01 0.35242559757E-01
 0.35542381740E-01 0.35242559775E-01 0.34441655352E-01 0.33354181030E-01 0.32170449448E-01
 0.31025407878E-01 0.30080320755E-01 0.29557309990E-01 0.29626929473E-01 0.30248030186E-01
 0.31133483044E-01 0.31883429440E-01 0.26148497612E-01 0.25791033393E-01 0.24851681054E-01
 0.23683453534E-01 0.22723422160E-01 0.22313722811E-01 0.22592788194E-01 0.23532396503E-01
 0.25040616281E-01 0.26968539949E-01 0.28997760462E-01 0.30595313234E-01 0.31207884939E-01
 0.30595313252E-01 0.28997760510E-01 0.26968540034E-01 0.25040616386E-01 0.23532396591E-01
 0.22592788233E-01 0.22313722797E-01 0.22723422121E-01 0.23683453504E-01 0.24851681047E-01
 0.25791033398E-01 0.18507460174E-01 0.18168655497E-01 0.17311473219E-01 0.16297091062E-01
 0.15455621427E-01 0.14958118383E-01 0.14880412596E-01 0.15326790483E-01 0.16421155410E-01
 0.18132887797E-01 0.20108958043E-01 0.21718144497E-01 0.22340673885E-01 0.21718144499E-01
 0.20108958072E-01 0.18132887874E-01 0.16421155519E-01 0.15326790580E-01 0.14880412642E-01
 0.14958118379E-01 0.15455621407E-01 0.16297091064E-01 0.17311473248E-01 0.18168655526E-01
 0.11307518089E-01 0.11046453113E-01 0.10431048509E-01 0.97845282983E-02 0.92704044219E-02
 0.88270656535E-02 0.84064489681E-02 0.81866473564E-02 0.84717773570E-02 0.93782468962E-02
 0.10643629674E-01 0.11739312987E-01 0.12170372669E-01 0.11739312970E-01 0.10643629678E-01
 0.93782469531E-02 0.84717774542E-02 0.81866474446E-02 0.84064490071E-02 0.88270656494E-02
 0.92704044186E-02 0.97845283323E-02 0.10431048574E-01 0.11046453166E-01 0.11307518041E-01
 0.11046453061E-01 0.10431048452E-01 0.97845282373E-02 0.92704043569E-02 0.88270655847E-02
 0.84064488963E-02 0.81866472827E-02 0.84717772826E-02 0.93782468221E-02 0.10643629601E-01
 0.11739312914E-01 0.12170372598E-01 0.11739312899E-01 0.10643629607E-01 0.93782468835E-02
 0.84717773883E-02 0.81866473845E-02 0.84064489539E-02 0.88270656025E-02 0.92704043756E-02
 0.97845282907E-02 0.10431048532E-01 0.11046453121E-01 0.13692251730E-01 0.13425501080E-01
 0.12780848553E-01 0.12068769167E-01 0.11478436476E-01 0.11011673581E-01 0.10675414913E-01
 0.10651471218E-01 0.11198307111E-01 0.12371940881E-01 0.13861880656E-01 0.15106932321E-01
 0.15590549356E-01 0.15106932310E-01 0.13861880668E-01 0.12371940944E-01 0.11198307214E-01
 0.10651471317E-01 0.10675414969E-01 0.11011673597E-01 0.11478436490E-01 0.12068769209E-01
 0.12780848618E-01 0.13425501130E-01 0.19561429570E-01 0.19298234339E-01 0.18629462831E-01
 0.17823467448E-01 0.17119625915E-01 0.16656209666E-01 0.16543954451E-01 0.16940418815E-01
 0.17980982624E-01 0.19601656024E-01 0.21431990869E-01 0.22890830012E-01 0.23448169667E-01
 0.22890830016E-01 0.21431990899E-01 0.19601656096E-01 0.17980982726E-01 0.16940418907E-01
 0.16543954500E-01 0.16656209671E-01 0.17119625907E-01 0.17823467457E-01 0.18629462861E-01
 0.19298234367E-01 0.26345878952E-01 0.26126246682E-01 0.25549884340E-01 0.24829355838E-01
 0.24221363304E-01 0.23939697639E-01 0.24115722513E-01 0.24808052527E-01 0.26007198460E-01
 0.27588221151E-01 0.29248606363E-01 0.30536852597E-01 0.31025423964E-01 0.30536852611E-01
 0.29248606401E-01 0.27588221220E-01 0.26007198544E-01 0.24808052596E-01 0.24115722539E-01
 0.23939697620E-01 0.24221363265E-01 0.24829355809E-01 0.25549884333E-01 0.26126246686E-01
 0.32663290379E-01 0.32532964584E-01 0.32215861854E-01 0.31894994195E-01 0.31765991039E-01
 0.31937804004E-01 0.32396075698E-01 0.33050083683E-01 0.33808604499E-01 0.34603965572E-01
 0.35349382230E-01 0.35902827527E-01 0.36110158111E-01 0.35902827534E-01 0.35349382249E-01
 0.34603965605E-01 0.33808604536E-01 0.33050083705E-01 0.32396075686E-01 0.31937803957E-01
 0.31765990975E-01 0.31894994141E-01 0.32215861823E-01 0.32532964573E-01 0.39440555370E-01
 0.39452781018E-01 0.39576557093E-01 0.39972107737E-01 0.40680061845E-01 0.41538767892E-01
 0.42279439369E-01 0.42686048693E-01 0.42684565910E-01 0.42341663315E-01 0.41829751537E-01
 0.41380127340E-01 0.41201685103E-01 0.41380127324E-01 0.41829751512E-01 0.42341663290E-01
 0.42684565886E-01 0.42686048663E-01 0.42279439323E-01 0.41538767827E-01 0.40680061773E-01
 0.39972107676E-01 0.39576557053E-01 0.39452781001E-01 0.48784438951E-01 0.49034675358E-01
 0.49831809471E-01 0.51195328330E-01 0.52918781753E-01 0.54560599902E-01 0.55657890554E-01
 0.55945026331E-01 0.55408824752E-01 0.54240721331E-01 0.52809301104E-01 0.51621650999E-01
 0.51158350266E-01 0.51621650965E-01 0.52809301047E-01 0.54240721266E-01 0.55408824691E-01
 0.55945026276E-01 0.55657890497E-01 0.54560599836E-01 0.52918781681E-01 0.51195328263E-01
 0.49831809421E-01 0.49034675332E-01 0.61925851377E-01 0.62537340407E-01 0.64257333903E-01
 0.66740507890E-01 0.69451352749E-01 0.71803003790E-01 0.73341464940E-01 0.73855432440E-01
 0.73375061344E-01 0.72139086760E-01 0.70585137647E-01 0.69292501683E-01 0.68789193379E-01
 0.69292501659E-01 0.70585137607E-01 0.72139086716E-01 0.73375061305E-01 0.73855432406E-01
 0.73341464900E-01 0.71803003733E-01 0.69451352672E-01 0.66740507806E-01 0.64257333830E-01
 0.62537340365E-01 0.78050148910E-01 0.79073662935E-01 0.81790707291E-01 0.85345855743E-01
 0.88830920125E-01 0.91641131112E-01 0.93540852766E-01 0.94521250129E-01 0.94668315850E-01
 0.94156992421E-01 0.93301834808E-01 0.92527897385E-01 0.92218168850E-01 0.92527897402E-01
 0.93301834837E-01 0.94156992455E-01 0.94668315879E-01 0.94521250145E-01 0.93540852755E-01
 0.91641131062E-01 0.88830920036E-01 0.85345855634E-01 0.81790707192E-01 0.79073662876E-01
 0.94735459657E-01 0.96054356657E-01 0.99466041854E-01 0.10369390025E+00 0.10751183400E+00
 0.11034049480E+00 0.11227302576E+00 0.11366258264E+00 0.11471932482E+00 0.11543420791E+00
 0.11577085770E+00 0.11583430838E+00 0.11582207335E+00 0.11583430844E+00 0.11577085780E+00
 0.11543420802E+00 0.11471932491E+00 0.11366258269E+00 0.11227302577E+00 0.11034049475E+00
 0.10751183391E+00 0.10369390014E+00 0.99466041752E-01 0.96054356598E-01 0.10952751976E+00
 0.11086882639E+00 0.11428834845E+00 0.11836648878E+00 0.12177135985E+00 0.12402248417E+00
 0.12556415038E+00 0.12714776565E+00 0.12910133226E+00 0.13112453994E+00 0.13269496216E+00
 0.13356481707E+00 0.13382201803E+00 0.13356481714E+00 0.13269496228E+00 0.13112454006E+00
 0.12910133235E+00 0.12714776568E+00 0.12556415037E+00 0.12402248412E+00 0.12177135977E+00
 0.11836648871E+00 0.11428834838E+00 0.11086882635E+00 0.12149589712E+00 0.12252319859E+00
 0.12506572134E+00 0.12787956033E+00 0.12989152900E+00 0.13095070479E+00 0.13184796122E+00
 0.13354766723E+00 0.13629620834E+00 0.13942585854E+00 0.14198324570E+00 0.14346686703E+00
 0.14392248474E+00 0.14346686708E+00 0.14198324577E+00 0.13942585860E+00 0.13629620836E+00
 0.13354766721E+00 0.13184796117E+00 0.13095070474E+00 0.12989152896E+00 0.12787956031E+00
 0.12506572133E+00 0.12252319860E+00 0.13147014802E+00 0.13187409303E+00 0.13271078397E+00
 0.13320511042E+00 0.13294506826E+00 0.13239888279E+00 0.13267496091E+00 0.13464973101E+00
 0.13820383988E+00 0.14226578700E+00 0.14560510568E+00 0.14758809687E+00 0.14821373683E+00
 0.14758809688E+00 0.14560510567E+00 0.14226578696E+00 0.13820383981E+00 0.13464973092E+00
 0.13267496083E+00 0.13239888275E+00 0.13294506827E+00 0.13320511046E+00 0.13271078402E+00
 0.13187409306E+00 0.14054125216E+00 0.14012340294E+00 0.13876438732E+00 0.13641012350E+00
 0.13355360125E+00 0.13137002606E+00 0.13118444193E+00 0.13360406253E+00 0.13803482747E+00
 0.14302305054E+00 0.14713873250E+00 0.14964445794E+00 0.15045701390E+00 0.14964445789E+00
 0.14713873242E+00 0.14302305043E+00 0.13803482734E+00 0.13360406241E+00 0.13118444184E+00
 0.13137002602E+00 0.13355360127E+00 0.13641012355E+00 0.13876438738E+00 0.14012340297E+00
 0.14824261796E+00 0.14702622643E+00 0.14360859431E+00 0.13874377008E+00 0.13375415828E+00
 0.13029605297E+00 0.12974454184E+00 0.13248034886E+00 0.13760762160E+00 0.14340951835E+00
 0.14825501499E+00 0.15126038557E+00 0.15225012450E+00 0.15126038551E+00 0.14825501487E+00
 0.14340951821E+00 0.13760762146E+00 0.13248034874E+00 0.12974454175E+00 0.13029605292E+00
 0.13375415828E+00 0.13874377010E+00 0.14360859434E+00 0.14702622645E+00 0.15265246565E+00
 0.15093934720E+00 0.14629293583E+00 0.14003511867E+00 0.13394058218E+00 0.12978593202E+00
 0.12885415342E+00 0.13144034245E+00 0.13662977687E+00 0.14266733859E+00 0.14781166559E+00
 0.15104943075E+00 0.15212432588E+00 0.15104943067E+00 0.14781166546E+00 0.14266733844E+00
 0.13662977673E+00 0.13144034232E+00 0.12885415331E+00 0.12978593194E+00 0.13394058214E+00
 0.14003511865E+00 0.14629293583E+00 0.15093934721E+00 0.15274108559E+00 0.15096800166E+00
 0.14619341648E+00 0.13982784441E+00 0.13364953596E+00 0.12932002895E+00 0.12799020726E+00
 0.12994210829E+00 0.13440162761E+00 0.13981102272E+00 0.14455010871E+00 0.14759845884E+00
 0.14862405211E+00 0.14759845876E+00 0.14455010858E+00 0.13981102257E+00 0.13440162744E+00
 0.12994210812E+00 0.12799020709E+00 0.12932002881E+00 0.13364953587E+00 0.13982784436E+00
 0.14619341646E+00 0.15096800166E+00 0.15032725179E+00 0.14876172288E+00 0.14449887739E+00
 0.13870269439E+00 0.13292467434E+00 0.12868245874E+00 0.12703901811E+00 0.12825733381E+00
 0.13169128264E+00 0.13606241457E+00 0.14002661475E+00 0.14266239612E+00 0.14356985472E+00
 0.14266239605E+00 0.14002661463E+00 0.13606241440E+00 0.13169128244E+00 0.12825733358E+00
 0.12703901788E+00 0.12868245853E+00 0.13292467419E+00 0.13870269431E+00 0.14449887736E+00
 0.14876172287E+00 0.14892485152E+00 0.14748797263E+00 0.14353615773E+00 0.13807402873E+00
 0.13252558381E+00 0.12835206619E+00 0.12658956802E+00 0.12748587454E+00 0.13043903081E+00
 0.13430091130E+00 0.13787395454E+00 0.14029850720E+00 0.14114527980E+00 0.14029850715E+00
 0.13787395445E+00 0.13430091116E+00 0.13043903062E+00 0.12748587429E+00 0.12658956774E+00
 0.12835206592E+00 0.13252558361E+00 0.13807402861E+00 0.14353615768E+00 0.14748797261E+00
 0.15032725240E+00 0.14876172351E+00 0.14449887806E+00 0.13870269510E+00 0.13292467511E+00
 0.12868245956E+00 0.12703901898E+00 0.12825733471E+00 0.13169128357E+00 0.13606241554E+00
 0.14002661576E+00 0.14266239717E+00 0.14356985580E+00 0.14266239715E+00 0.14002661572E+00
 0.13606241546E+00 0.13169128344E+00 0.12825733450E+00 0.12703901870E+00 0.12868245927E+00
 0.13292467486E+00 0.13870269493E+00 0.14449887797E+00 0.14876172347E+00 0.15274108679E+00
 0.15096800289E+00 0.14619341777E+00 0.13982784577E+00 0.13364953741E+00 0.12932003050E+00
 0.12799020890E+00 0.12994211002E+00 0.13440162941E+00 0.13981102460E+00 0.14455011066E+00
 0.14759846087E+00 0.14862405420E+00 0.14759846088E+00 0.14455011069E+00 0.13981102461E+00
 0.13440162936E+00 0.12994210988E+00 0.12799020868E+00 0.12932003024E+00 0.13364953717E+00
 0.13982784559E+00 0.14619341765E+00 0.15096800284E+00 0.15265246736E+00 0.15093934895E+00
 0.14629293764E+00 0.14003512055E+00 0.13394058418E+00 0.12978593414E+00 0.12885415568E+00
 0.13144034484E+00 0.13662977938E+00 0.14266734121E+00 0.14781166833E+00 0.15104943360E+00
 0.15212432880E+00 0.15104943363E+00 0.14781166840E+00 0.14266734128E+00 0.13662977941E+00
 0.13144034478E+00 0.12885415555E+00 0.12978593397E+00 0.13394058401E+00 0.14003512042E+00
 0.14629293755E+00 0.15093934890E+00 0.14824262005E+00 0.14702622854E+00 0.14360859647E+00
 0.13874377231E+00 0.13375416063E+00 0.13029605546E+00 0.12974454450E+00 0.13248035169E+00
 0.13760762459E+00 0.14340952149E+00 0.14825501827E+00 0.15126038899E+00 0.15225012800E+00
 0.15126038903E+00 0.14825501835E+00 0.14340952158E+00 0.13760762466E+00 0.13248035171E+00
 0.12974454448E+00 0.13029605542E+00 0.13375416059E+00 0.13874377229E+00 0.14360859645E+00
 0.14702622853E+00 0.14054125443E+00 0.14012340522E+00 0.13876438965E+00 0.13641012590E+00
 0.13355360377E+00 0.13137002874E+00 0.13118444479E+00 0.13360406557E+00 0.13803483069E+00
 0.14302305392E+00 0.14713873604E+00 0.14964446160E+00 0.15045701764E+00 0.14964446165E+00
 0.14713873614E+00 0.14302305405E+00 0.13803483081E+00 0.13360406567E+00 0.13118444487E+00
 0.13137002882E+00 0.13355360387E+00 0.13641012600E+00 0.13876438973E+00 0.14012340526E+00
 0.13147015030E+00 0.13187409531E+00 0.13271078629E+00 0.13320511284E+00 0.13294507081E+00
 0.13239888549E+00 0.13267496379E+00 0.13464973406E+00 0.13820384309E+00 0.14226579036E+00
 0.14560510918E+00 0.14758810049E+00 0.14821374052E+00 0.14758810059E+00 0.14560510935E+00
 0.14226579056E+00 0.13820384330E+00 0.13464973425E+00 0.13267496397E+00 0.13239888567E+00
 0.13294507099E+00 0.13320511301E+00 0.13271078643E+00 0.13187409538E+00 0.12149589929E+00
 0.12252320075E+00 0.12506572355E+00 0.12787956265E+00 0.12989153145E+00 0.13095070739E+00
 0.13184796397E+00 0.13354767014E+00 0.13629621138E+00 0.13942586171E+00 0.14198324899E+00
 0.14346687042E+00 0.14392248820E+00 0.14346687057E+00 0.14198324924E+00 0.13942586201E+00
 0.13629621169E+00 0.13354767042E+00 0.13184796423E+00 0.13095070762E+00 0.12989153165E+00
 0.12787956282E+00 0.12506572368E+00 0.12252320082E+00 0.10952752176E+00 0.11086882838E+00
 0.11428835049E+00 0.11836649093E+00 0.12177136213E+00 0.12402248658E+00 0.12556415292E+00
 0.12714776830E+00 0.12910133503E+00 0.13112454281E+00 0.13269496514E+00 0.13356482014E+00
 0.13382202118E+00 0.13356482031E+00 0.13269496544E+00 0.13112454317E+00 0.12910133539E+00
 0.12714776864E+00 0.12556415321E+00 0.12402248681E+00 0.12177136230E+00 0.11836649106E+00
 0.11428835058E+00 0.11086882842E+00 0.94735461467E-01 0.96054358456E-01 0.99466043698E-01
 0.10369390219E+00 0.10751183604E+00 0.11034049695E+00 0.11227302802E+00 0.11366258498E+00
 0.11471932726E+00 0.11543421043E+00 0.11577086032E+00 0.11583431109E+00 0.11582207612E+00
 0.11583431124E+00 0.11577086059E+00 0.11543421076E+00 0.11471932759E+00 0.11366258530E+00
 0.11227302828E+00 0.11034049716E+00 0.10751183618E+00 0.10369390227E+00 0.99466043745E-01
 0.96054358476E-01 0.78050150501E-01 0.79073664514E-01 0.81790708905E-01 0.85345857426E-01
 0.88830921896E-01 0.91641132972E-01 0.93540854706E-01 0.94521252141E-01 0.94668317929E-01
 0.94156994573E-01 0.93301837036E-01 0.92527899686E-01 0.92218171206E-01 0.92527899782E-01
 0.93301837207E-01 0.94156994788E-01 0.94668318161E-01 0.94521252367E-01 0.93540854908E-01
 0.91641133133E-01 0.88830922007E-01 0.85345857493E-01 0.81790708938E-01 0.79073664527E-01
 0.61925852723E-01 0.62537341743E-01 0.64257335270E-01 0.66740509318E-01 0.69451354249E-01
 0.71803005362E-01 0.73341466575E-01 0.73855434126E-01 0.73375063076E-01 0.72139088537E-01
 0.70585139473E-01 0.69292503561E-01 0.68789195301E-01 0.69292503605E-01 0.70585139552E-01
 0.72139088641E-01 0.73375063196E-01 0.73855434253E-01 0.73341466696E-01 0.71803005466E-01
 0.69451354328E-01 0.66740509372E-01 0.64257335304E-01 0.62537341760E-01 0.48784440053E-01
 0.49034676457E-01 0.49831810602E-01 0.51195329517E-01 0.52918783003E-01 0.54560601212E-01
 0.55657891913E-01 0.55945027723E-01 0.55408826166E-01 0.54240722764E-01 0.52809302561E-01
 0.51621652486E-01 0.51158351785E-01 0.51621652507E-01 0.52809302600E-01 0.54240722817E-01
 0.55408826228E-01 0.55945027787E-01 0.55657891971E-01 0.54560601259E-01 0.52918783039E-01
 0.51195329547E-01 0.49831810627E-01 0.49034676472E-01 0.39440556270E-01 0.39452781921E-01
 0.39576558025E-01 0.39972108715E-01 0.40680062874E-01 0.41538768968E-01 0.42279440483E-01
 0.42686049828E-01 0.42684567055E-01 0.42341664465E-01 0.41829752697E-01 0.41380128519E-01
 0.41201686305E-01 0.41380128547E-01 0.41829752748E-01 0.42341664531E-01 0.42684567123E-01
 0.42686049883E-01 0.42279440514E-01 0.41538768976E-01 0.40680062868E-01 0.39972108711E-01