   2   2   1   0
  0.2120000E+02  0.2650000E-09  0.4000000E-09  0.4000000E-09  0.5000000E-15
  1.000000000000000E-004
  CAR 
 Screening bandgap                       
     11.06802309    -18.31997806  301     -2.44433494      1.00000000
    -18.320  0.0000E+00  0.0000E+00
    -18.222  0.0000E+00  0.0000E+00
    -18.124  0.0000E+00  0.0000E+00
    -18.026  0.0000E+00  0.0000E+00
    -17.928  0.0000E+00  0.0000E+00
    -17.830  0.0000E+00  0.0000E+00
    -17.732  0.0000E+00  0.0000E+00
    -17.634  0.0000E+00  0.0000E+00
    -17.536  0.0000E+00  0.0000E+00
    -17.438  0.0000E+00  0.0000E+00
    -17.340  0.0000E+00  0.0000E+00
    -17.242  0.5676E-12  0.5560E-13
    -17.144  0.1182E-04  0.1158E-05
    -17.046  0.1590E+00  0.1557E-01
    -16.949  0.3284E+01  0.3373E+00
    -16.851  0.6401E+00  0.4000E+00
    -16.753  0.3224E-03  0.4000E+00
    -16.655  0.9149E-04  0.4000E+00
    -16.557  0.5793E+00  0.4568E+00
    -16.459  0.6799E+01  0.1123E+01
    -16.361  0.7876E+00  0.1200E+01
    -16.263  0.1897E-03  0.1200E+01
    -16.165  0.3157E-10  0.1200E+01
    -16.067  0.0000E+00  0.1200E+01
    -15.969  0.0000E+00  0.1200E+01
    -15.871  0.0000E+00  0.1200E+01
    -15.773  0.0000E+00  0.1200E+01
    -15.675  0.0000E+00  0.1200E+01
    -15.577  0.0000E+00  0.1200E+01
    -15.479  0.4443E-08  0.1200E+01
    -15.381  0.3608E-02  0.1200E+01
    -15.283  0.2362E+01  0.1432E+01
    -15.185  0.5692E+01  0.1989E+01
    -15.087  0.1089E+00  0.2000E+01
    -14.989  0.2504E-05  0.2000E+01
    -14.891  0.3536E-13  0.2000E+01
    -14.793  0.0000E+00  0.2000E+01
    -14.695  0.0000E+00  0.2000E+01
    -14.597  0.0000E+00  0.2000E+01
    -14.500  0.0000E+00  0.2000E+01
    -14.402  0.0000E+00  0.2000E+01
    -14.304  0.0000E+00  0.2000E+01
    -14.206  0.0000E+00  0.2000E+01
    -14.108  0.0000E+00  0.2000E+01
    -14.010  0.0000E+00  0.2000E+01
    -13.912  0.0000E+00  0.2000E+01
    -13.814  0.0000E+00  0.2000E+01
    -13.716  0.0000E+00  0.2000E+01
    -13.618  0.0000E+00  0.2000E+01
    -13.520  0.0000E+00  0.2000E+01
    -13.422  0.0000E+00  0.2000E+01
    -13.324  0.0000E+00  0.2000E+01
    -13.226  0.0000E+00  0.2000E+01
    -13.128  0.0000E+00  0.2000E+01
    -13.030  0.0000E+00  0.2000E+01
    -12.932  0.0000E+00  0.2000E+01
    -12.834  0.0000E+00  0.2000E+01
    -12.736  0.1718E-12  0.2000E+01
    -12.638  0.7030E-05  0.2000E+01
    -12.540  0.1802E+00  0.2018E+01
    -12.442  0.6155E+01  0.2621E+01
    -12.344  0.1830E+01  0.2800E+01
    -12.246  0.1706E-02  0.2800E+01
    -12.148  0.1221E-08  0.2800E+01
    -12.051  0.0000E+00  0.2800E+01
    -11.953  0.0000E+00  0.2800E+01
    -11.855  0.0000E+00  0.2800E+01
    -11.757  0.0000E+00  0.2800E+01
    -11.659  0.0000E+00  0.2800E+01
    -11.561  0.0000E+00  0.2800E+01
    -11.463  0.0000E+00  0.2800E+01
    -11.365  0.0000E+00  0.2800E+01
    -11.267  0.0000E+00  0.2800E+01
    -11.169  0.0000E+00  0.2800E+01
    -11.071  0.0000E+00  0.2800E+01
    -10.973  0.0000E+00  0.2800E+01
    -10.875  0.0000E+00  0.2800E+01
    -10.777  0.0000E+00  0.2800E+01
    -10.679  0.3430E-10  0.2800E+01
    -10.581  0.1997E-03  0.2800E+01
    -10.483  0.8043E+00  0.2879E+01
    -10.385  0.6796E+01  0.3545E+01
    -10.287  0.5663E+00  0.3600E+01
    -10.189  0.8677E-04  0.3600E+01
    -10.091  0.8926E-11  0.3600E+01
     -9.993  0.0000E+00  0.3600E+01
     -9.895  0.0000E+00  0.3600E+01
     -9.797  0.0000E+00  0.3600E+01
     -9.699  0.2040E-14  0.3600E+01
     -9.602  0.3084E-06  0.3600E+01
     -9.504  0.2678E-01  0.3603E+01
     -9.406  0.2481E+01  0.3846E+01
     -9.308  0.1571E+01  0.4000E+01
     -9.210  0.4505E-02  0.4000E+01
     -9.112  0.1120E-07  0.4000E+01
     -9.014  0.0000E+00  0.4000E+01
     -8.916  0.0000E+00  0.4000E+01
     -8.818  0.0000E+00  0.4000E+01
     -8.720  0.0000E+00  0.4000E+01
     -8.622  0.0000E+00  0.4000E+01
     -8.524  0.0000E+00  0.4000E+01
     -8.426  0.0000E+00  0.4000E+01
     -8.328  0.0000E+00  0.4000E+01
     -8.230  0.0000E+00  0.4000E+01
     -8.132  0.0000E+00  0.4000E+01
     -8.034  0.0000E+00  0.4000E+01
     -7.936  0.0000E+00  0.4000E+01
     -7.838  0.0000E+00  0.4000E+01
     -7.740  0.0000E+00  0.4000E+01
     -7.642  0.0000E+00  0.4000E+01
     -7.544  0.0000E+00  0.4000E+01
     -7.446  0.0000E+00  0.4000E+01
     -7.348  0.0000E+00  0.4000E+01
     -7.250  0.0000E+00  0.4000E+01
     -7.153  0.0000E+00  0.4000E+01
     -7.055  0.0000E+00  0.4000E+01
     -6.957  0.0000E+00  0.4000E+01
     -6.859  0.0000E+00  0.4000E+01
     -6.761  0.0000E+00  0.4000E+01
     -6.663  0.0000E+00  0.4000E+01
     -6.565  0.0000E+00  0.4000E+01
     -6.467  0.0000E+00  0.4000E+01
     -6.369  0.0000E+00  0.4000E+01
     -6.271  0.0000E+00  0.4000E+01
     -6.173  0.0000E+00  0.4000E+01
     -6.075  0.0000E+00  0.4000E+01
     -5.977  0.9067E-15  0.4000E+01
     -5.879  0.1814E-06  0.4000E+01
     -5.781  0.2818E-01  0.4003E+01
     -5.683  0.4280E+01  0.4422E+01
     -5.585  0.3840E+01  0.4798E+01
     -5.487  0.1843E-01  0.4800E+01
     -5.389  0.8234E-07  0.4800E+01
     -5.291  0.0000E+00  0.4800E+01
     -5.193  0.8160E-14  0.4800E+01
     -5.095  0.1165E-05  0.4800E+01
     -4.997  0.1040E+00  0.4810E+01
     -4.899  0.9862E+01  0.5776E+01
     -4.801  0.6349E+01  0.6398E+01
     -4.704  0.1866E-01  0.6400E+01
     -4.606  0.4772E-07  0.6400E+01
     -4.508  0.0000E+00  0.6400E+01
     -4.410  0.0000E+00  0.6400E+01
     -4.312  0.0000E+00  0.6400E+01
     -4.214  0.0000E+00  0.6400E+01
     -4.116  0.0000E+00  0.6400E+01
     -4.018  0.0000E+00  0.6400E+01
     -3.920  0.0000E+00  0.6400E+01
     -3.822  0.0000E+00  0.6400E+01
     -3.724  0.0000E+00  0.6400E+01
     -3.626  0.0000E+00  0.6400E+01
     -3.528  0.0000E+00  0.6400E+01
     -3.430  0.0000E+00  0.6400E+01
     -3.332  0.0000E+00  0.6400E+01
     -3.234  0.0000E+00  0.6400E+01
     -3.136  0.0000E+00  0.6400E+01
     -3.038  0.9067E-15  0.6400E+01
     -2.940  0.2137E-06  0.6400E+01
     -2.842  0.4244E-01  0.6404E+01
     -2.744  0.7969E+01  0.7185E+01
     -2.646  0.8273E+01  0.7995E+01
     -2.548  0.4914E-01  0.8000E+01
     -2.450  0.2807E-06  0.8000E+01
     -2.352  0.0000E+00  0.8000E+01
     -2.255  0.0000E+00  0.8000E+01
     -2.157  0.0000E+00  0.8000E+01
     -2.059  0.0000E+00  0.8000E+01
     -1.961  0.0000E+00  0.8000E+01
     -1.863  0.0000E+00  0.8000E+01
     -1.765  0.0000E+00  0.8000E+01
     -1.667  0.0000E+00  0.8000E+01
     -1.569  0.0000E+00  0.8000E+01
     -1.471  0.0000E+00  0.8000E+01
     -1.373  0.0000E+00  0.8000E+01
     -1.275  0.0000E+00  0.8000E+01
     -1.177  0.0000E+00  0.8000E+01
     -1.079  0.0000E+00  0.8000E+01
     -0.981  0.0000E+00  0.8000E+01
     -0.883  0.0000E+00  0.8000E+01
     -0.785  0.0000E+00  0.8000E+01
     -0.687  0.0000E+00  0.8000E+01
     -0.589  0.0000E+00  0.8000E+01
     -0.491  0.0000E+00  0.8000E+01
     -0.393  0.0000E+00  0.8000E+01
     -0.295  0.0000E+00  0.8000E+01
     -0.197  0.0000E+00  0.8000E+01
     -0.099  0.0000E+00  0.8000E+01
     -0.001  0.0000E+00  0.8000E+01
      0.097  0.0000E+00  0.8000E+01
      0.194  0.0000E+00  0.8000E+01
      0.292  0.0000E+00  0.8000E+01
      0.390  0.0000E+00  0.8000E+01
      0.488  0.0000E+00  0.8000E+01
      0.586  0.0000E+00  0.8000E+01
      0.684  0.0000E+00  0.8000E+01
      0.782  0.0000E+00  0.8000E+01
      0.880  0.0000E+00  0.8000E+01
      0.978  0.0000E+00  0.8000E+01
      1.076  0.0000E+00  0.8000E+01
      1.174  0.0000E+00  0.8000E+01
      1.272  0.0000E+00  0.8000E+01
      1.370  0.0000E+00  0.8000E+01
      1.468  0.0000E+00  0.8000E+01
      1.566  0.4600E-10  0.8000E+01
      1.664  0.3122E-03  0.8000E+01
      1.762  0.1453E+01  0.8142E+01
      1.860  0.1362E+02  0.9476E+01
      1.958  0.1262E+01  0.9600E+01
      2.056  0.2236E-03  0.9600E+01
      2.154  0.2682E-10  0.9600E+01
      2.252  0.0000E+00  0.9600E+01
      2.350  0.2955E-11  0.9600E+01
      2.448  0.3353E-04  0.9600E+01
      2.546  0.2532E+00  0.9625E+01
      2.643  0.3386E+01  0.9956E+01
      2.741  0.4443E+00  0.1000E+02
      2.839  0.1274E-03  0.1000E+02
      2.937  0.2554E-10  0.1000E+02
      3.035  0.8795E-13  0.1000E+02
      3.133  0.4553E-05  0.1000E+02
      3.231  0.1461E+00  0.1001E+02
      3.329  0.5970E+01  0.1060E+02
      3.427  0.2048E+01  0.1080E+02
      3.525  0.2358E-02  0.1080E+02
      3.623  0.2126E-08  0.1080E+02
      3.721  0.0000E+00  0.1080E+02
      3.819  0.0000E+00  0.1080E+02
      3.917  0.0000E+00  0.1080E+02
      4.015  0.0000E+00  0.1080E+02
      4.113  0.0000E+00  0.1080E+02
      4.211  0.0000E+00  0.1080E+02
      4.309  0.0000E+00  0.1080E+02
      4.407  0.0000E+00  0.1080E+02
      4.505  0.0000E+00  0.1080E+02
      4.603  0.0000E+00  0.1080E+02
      4.701  0.0000E+00  0.1080E+02
      4.799  0.0000E+00  0.1080E+02
      4.897  0.0000E+00  0.1080E+02
      4.995  0.0000E+00  0.1080E+02
      5.092  0.3169E-09  0.1080E+02
      5.190  0.7682E-03  0.1080E+02
      5.288  0.1368E+01  0.1093E+02
      5.386  0.6509E+01  0.1157E+02
      5.484  0.2889E+00  0.1160E+02
      5.582  0.1483E+00  0.1161E+02
      5.680  0.3263E+01  0.1193E+02
      5.778  0.6719E+00  0.1200E+02
      5.876  0.3664E-03  0.1200E+02
      5.974  0.1464E-09  0.1200E+02
      6.072  0.0000E+00  0.1200E+02
      6.170  0.0000E+00  0.1200E+02
      6.268  0.1496E-08  0.1200E+02
      6.366  0.2558E-02  0.1200E+02
      6.464  0.3302E+01  0.1232E+02
      6.562  0.1260E+02  0.1356E+02
      6.660  0.4304E+00  0.1360E+02
      6.758  0.2042E-04  0.1360E+02
      6.856  0.1999E-02  0.1360E+02
      6.954  0.1934E+01  0.1379E+02
      7.052  0.6067E+01  0.1438E+02
      7.150  0.1629E+00  0.1440E+02
      7.248  0.4088E+00  0.1444E+02
      7.346  0.3396E+01  0.1477E+02
      7.444  0.2781E+00  0.1480E+02
      7.541  0.4162E-04  0.1480E+02
      7.639  0.4176E-11  0.1480E+02
      7.737  0.1994E-10  0.1480E+02
      7.835  0.1429E-03  0.1480E+02
      7.933  0.7000E+00  0.1487E+02
      8.031  0.6811E+01  0.1554E+02
      8.129  0.6554E+00  0.1560E+02
      8.227  0.1222E-03  0.1560E+02
      8.325  0.1549E-10  0.1560E+02
      8.423  0.0000E+00  0.1560E+02
      8.521  0.0000E+00  0.1560E+02
      8.619  0.0000E+00  0.1560E+02
      8.717  0.0000E+00  0.1560E+02
      8.815  0.0000E+00  0.1560E+02
      8.913  0.0000E+00  0.1560E+02
      9.011  0.0000E+00  0.1560E+02
      9.109  0.0000E+00  0.1560E+02
      9.207  0.0000E+00  0.1560E+02
      9.305  0.0000E+00  0.1560E+02
      9.403  0.0000E+00  0.1560E+02
      9.501  0.1183E-09  0.1560E+02
      9.599  0.3224E-03  0.1560E+02
      9.697  0.6401E+00  0.1566E+02
      9.795  0.3284E+01  0.1598E+02
      9.893  0.1590E+00  0.1600E+02
      9.990  0.1182E-04  0.1600E+02
     10.088  0.5676E-12  0.1600E+02
     10.186  0.0000E+00  0.1600E+02
     10.284  0.0000E+00  0.1600E+02
     10.382  0.0000E+00  0.1600E+02
     10.480  0.0000E+00  0.1600E+02
     10.578  0.0000E+00  0.1600E+02
     10.676  0.0000E+00  0.1600E+02
     10.774  0.0000E+00  0.1600E+02
     10.872  0.0000E+00  0.1600E+02
     10.970  0.0000E+00  0.1600E+02
     11.068  0.0000E+00  0.1600E+02
     11.06802309    -18.31997806  301     -2.44433494      1.00000000
    -18.320  0.0000E+00  0.0000E+00  0.0000E+00  0.0000E+00  0.0000E+00  0.0000E+00  0.0000E+00  0.0000E+00  0.0000E+00
    -18.222  0.0000E+00  0.0000E+00  0.0000E+00  0.0000E+00  0.0000E+00  0.0000E+00  0.0000E+00  0.0000E+00  0.0000E+00
    -18.124  0.0000E+00  0.0000E+00  0.0000E+00  0.0000E+00  0.0000E+00  0.0000E+00  0.0000E+00  0.0000E+00  0.0000E+00
    -18.026  0.0000E+00  0.0000E+00  0.0000E+00  0.0000E+00  0.0000E+00  0.0000E+00  0.0000E+00  0.0000E+00  0.0000E+00
    -17.928  0.0000E+00  0.0000E+00  0.0000E+00  0.0000E+00  0.0000E+00  0.0000E+00  0.0000E+00  0.0000E+00  0.0000E+00
    -17.830  0.0000E+00  0.0000E+00  0.0000E+00  0.0000E+00  0.0000E+00  0.0000E+00  0.0000E+00  0.0000E+00  0.0000E+00
    -17.732  0.0000E+00  0.0000E+00  0.0000E+00  0.0000E+00  0.0000E+00  0.0000E+00  0.0000E+00  0.0000E+00  0.0000E+00
    -17.634  0.0000E+00  0.0000E+00  0.0000E+00  0.0000E+00  0.0000E+00  0.0000E+00  0.0000E+00  0.0000E+00  0.0000E+00
    -17.536  0.0000E+00  0.0000E+00  0.0000E+00  0.0000E+00  0.0000E+00  0.0000E+00  0.0000E+00  0.0000E+00  0.0000E+00
    -17.438  0.0000E+00  0.0000E+00  0.0000E+00  0.0000E+00  0.0000E+00  0.0000E+00  0.0000E+00  0.0000E+00  0.0000E+00
    -17.340  0.0000E+00  0.0000E+00  0.0000E+00  0.0000E+00  0.0000E+00  0.0000E+00  0.0000E+00  0.0000E+00  0.0000E+00
    -17.242  0.1990E-12  0.1411E-35  0.2063E-36  0.6391E-14  0.0000E+00  0.0000E+00  0.0000E+00  0.0000E+00  0.0000E+00
    -17.144  0.4144E-05  0.2939E-28  0.4296E-29  0.1331E-06  0.0000E+00  0.0000E+00  0.0000E+00  0.0000E+00  0.0000E+00
    -17.046  0.5573E-01  0.3952E-24  0.5778E-25  0.1790E-02  0.0000E+00  0.0000E+00  0.0000E+00  0.0000E+00  0.0000E+00
    -16.949  0.1151E+01  0.8165E-23  0.1193E-23  0.3697E-01  0.0000E+00  0.0000E+00  0.0000E+00  0.0000E+00  0.0000E+00
    -16.851  0.2244E+00  0.1591E-23  0.2326E-24  0.7207E-02  0.0000E+00  0.0000E+00  0.0000E+00  0.0000E+00  0.0000E+00
    -16.753  0.1130E-03  0.8016E-27  0.1172E-27  0.3630E-05  0.0000E+00  0.0000E+00  0.0000E+00  0.0000E+00  0.0000E+00
    -16.655  0.3077E-04  0.4158E-28  0.2144E-27  0.3116E-05  0.0000E+00  0.0000E+00  0.0000E+00  0.0000E+00  0.0000E+00
    -16.557  0.1948E+00  0.2633E-24  0.1358E-23  0.1973E-01  0.0000E+00  0.0000E+00  0.0000E+00  0.0000E+00  0.0000E+00
    -16.459  0.2287E+01  0.3090E-23  0.1594E-22  0.2316E+00  0.0000E+00  0.0000E+00  0.0000E+00  0.0000E+00  0.0000E+00
    -16.361  0.2649E+00  0.3579E-24  0.1846E-23  0.2682E-01  0.0000E+00  0.0000E+00  0.0000E+00  0.0000E+00  0.0000E+00
    -16.263  0.6381E-04  0.8623E-28  0.4447E-27  0.6462E-05  0.0000E+00  0.0000E+00  0.0000E+00  0.0000E+00  0.0000E+00
    -16.165  0.1062E-10  0.1435E-34  0.7399E-34  0.1075E-11  0.0000E+00  0.0000E+00  0.0000E+00  0.0000E+00  0.0000E+00
    -16.067  0.0000E+00  0.0000E+00  0.0000E+00  0.0000E+00  0.0000E+00  0.0000E+00  0.0000E+00  0.0000E+00  0.0000E+00
    -15.969  0.0000E+00  0.0000E+00  0.0000E+00  0.0000E+00  0.0000E+00  0.0000E+00  0.0000E+00  0.0000E+00  0.0000E+00
    -15.871  0.0000E+00  0.0000E+00  0.0000E+00  0.0000E+00  0.0000E+00  0.0000E+00  0.0000E+00  0.0000E+00  0.0000E+00
    -15.773  0.0000E+00  0.0000E+00  0.0000E+00  0.0000E+00  0.0000E+00  0.0000E+00  0.0000E+00  0.0000E+00  0.0000E+00
    -15.675  0.0000E+00  0.0000E+00  0.0000E+00  0.0000E+00  0.0000E+00  0.0000E+00  0.0000E+00  0.0000E+00  0.0000E+00
    -15.577  0.0000E+00  0.0000E+00  0.0000E+00  0.0000E+00  0.0000E+00  0.0000E+00  0.0000E+00  0.0000E+00  0.0000E+00
    -15.479  0.1338E-08  0.3559E-32  0.2073E-33  0.4958E-09  0.0000E+00  0.0000E+00  0.0000E+00  0.0000E+00  0.0000E+00
    -15.381  0.1087E-02  0.2890E-26  0.1683E-27  0.4026E-03  0.0000E+00  0.0000E+00  0.0000E+00  0.0000E+00  0.0000E+00
    -15.283  0.7113E+00  0.1892E-23  0.1102E-24  0.2635E+00  0.0000E+00  0.0000E+00  0.0000E+00  0.0000E+00  0.0000E+00
    -15.185  0.1715E+01  0.4560E-23  0.2656E-24  0.6352E+00  0.0000E+00  0.0000E+00  0.0000E+00  0.0000E+00  0.0000E+00
    -15.087  0.3281E-01  0.8726E-25  0.5082E-26  0.1215E-01  0.0000E+00  0.0000E+00  0.0000E+00  0.0000E+00  0.0000E+00
    -14.989  0.7543E-06  0.2006E-29  0.1169E-30  0.2795E-06  0.0000E+00  0.0000E+00  0.0000E+00  0.0000E+00  0.0000E+00
    -14.891  0.1065E-13  0.2833E-37  0.1650E-38  0.3946E-14  0.0000E+00  0.0000E+00  0.0000E+00  0.0000E+00  0.0000E+00
    -14.793  0.0000E+00  0.0000E+00  0.0000E+00  0.0000E+00  0.0000E+00  0.0000E+00  0.0000E+00  0.0000E+00  0.0000E+00
    -14.695  0.0000E+00  0.0000E+00  0.0000E+00  0.0000E+00  0.0000E+00  0.0000E+00  0.0000E+00  0.0000E+00  0.0000E+00
    -14.597  0.0000E+00  0.0000E+00  0.0000E+00  0.0000E+00  0.0000E+00  0.0000E+00  0.0000E+00  0.0000E+00  0.0000E+00
    -14.500  0.0000E+00  0.0000E+00  0.0000E+00  0.0000E+00  0.0000E+00  0.0000E+00  0.0000E+00  0.0000E+00  0.0000E+00
    -14.402  0.0000E+00  0.0000E+00  0.0000E+00  0.0000E+00  0.0000E+00  0.0000E+00  0.0000E+00  0.0000E+00  0.0000E+00
    -14.304  0.0000E+00  0.0000E+00  0.0000E+00  0.0000E+00  0.0000E+00  0.0000E+00  0.0000E+00  0.0000E+00  0.0000E+00
    -14.206  0.0000E+00  0.0000E+00  0.0000E+00  0.0000E+00  0.0000E+00  0.0000E+00  0.0000E+00  0.0000E+00  0.0000E+00
    -14.108  0.0000E+00  0.0000E+00  0.0000E+00  0.0000E+00  0.0000E+00  0.0000E+00  0.0000E+00  0.0000E+00  0.0000E+00
    -14.010  0.0000E+00  0.0000E+00  0.0000E+00  0.0000E+00  0.0000E+00  0.0000E+00  0.0000E+00  0.0000E+00  0.0000E+00
    -13.912  0.0000E+00  0.0000E+00  0.0000E+00  0.0000E+00  0.0000E+00  0.0000E+00  0.0000E+00  0.0000E+00  0.0000E+00
    -13.814  0.0000E+00  0.0000E+00  0.0000E+00  0.0000E+00  0.0000E+00  0.0000E+00  0.0000E+00  0.0000E+00  0.0000E+00
    -13.716  0.0000E+00  0.0000E+00  0.0000E+00  0.0000E+00  0.0000E+00  0.0000E+00  0.0000E+00  0.0000E+00  0.0000E+00
    -13.618  0.0000E+00  0.0000E+00  0.0000E+00  0.0000E+00  0.0000E+00  0.0000E+00  0.0000E+00  0.0000E+00  0.0000E+00
    -13.520  0.0000E+00  0.0000E+00  0.0000E+00  0.0000E+00  0.0000E+00  0.0000E+00  0.0000E+00  0.0000E+00  0.0000E+00
    -13.422  0.0000E+00  0.0000E+00  0.0000E+00  0.0000E+00  0.0000E+00  0.0000E+00  0.0000E+00  0.0000E+00  0.0000E+00
    -13.324  0.0000E+00  0.0000E+00  0.0000E+00  0.0000E+00  0.0000E+00  0.0000E+00  0.0000E+00  0.0000E+00  0.0000E+00
    -13.226  0.0000E+00  0.0000E+00  0.0000E+00  0.0000E+00  0.0000E+00  0.0000E+00  0.0000E+00  0.0000E+00  0.0000E+00
    -13.128  0.0000E+00  0.0000E+00  0.0000E+00  0.0000E+00  0.0000E+00  0.0000E+00  0.0000E+00  0.0000E+00  0.0000E+00
    -13.030  0.0000E+00  0.0000E+00  0.0000E+00  0.0000E+00  0.0000E+00  0.0000E+00  0.0000E+00  0.0000E+00  0.0000E+00
    -12.932  0.0000E+00  0.0000E+00  0.0000E+00  0.0000E+00  0.0000E+00  0.0000E+00  0.0000E+00  0.0000E+00  0.0000E+00
    -12.834  0.0000E+00  0.0000E+00  0.0000E+00  0.0000E+00  0.0000E+00  0.0000E+00  0.0000E+00  0.0000E+00  0.0000E+00
    -12.736  0.3259E-13  0.6044E-37  0.2240E-38  0.3106E-13  0.0000E+00  0.0000E+00  0.0000E+00  0.0000E+00  0.0000E+00
    -12.638  0.1333E-05  0.2473E-29  0.9165E-31  0.1271E-05  0.0000E+00  0.0000E+00  0.0000E+00  0.0000E+00  0.0000E+00
    -12.540  0.3417E-01  0.6338E-25  0.2349E-26  0.3257E-01  0.0000E+00  0.0000E+00  0.0000E+00  0.0000E+00  0.0000E+00
    -12.442  0.1167E+01  0.2165E-23  0.8024E-25  0.1113E+01  0.0000E+00  0.0000E+00  0.0000E+00  0.0000E+00  0.0000E+00
    -12.344  0.3470E+00  0.6436E-24  0.2385E-25  0.3308E+00  0.0000E+00  0.0000E+00  0.0000E+00  0.0000E+00  0.0000E+00
    -12.246  0.3236E-03  0.6001E-27  0.2224E-28  0.3084E-03  0.0000E+00  0.0000E+00  0.0000E+00  0.0000E+00  0.0000E+00
    -12.148  0.2316E-09  0.4295E-33  0.1592E-34  0.2207E-09  0.0000E+00  0.0000E+00  0.0000E+00  0.0000E+00  0.0000E+00
    -12.051  0.0000E+00  0.0000E+00  0.0000E+00  0.0000E+00  0.0000E+00  0.0000E+00  0.0000E+00  0.0000E+00  0.0000E+00
    -11.953  0.0000E+00  0.0000E+00  0.0000E+00  0.0000E+00  0.0000E+00  0.0000E+00  0.0000E+00  0.0000E+00  0.0000E+00
    -11.855  0.0000E+00  0.0000E+00  0.0000E+00  0.0000E+00  0.0000E+00  0.0000E+00  0.0000E+00  0.0000E+00  0.0000E+00
    -11.757  0.0000E+00  0.0000E+00  0.0000E+00  0.0000E+00  0.0000E+00  0.0000E+00  0.0000E+00  0.0000E+00  0.0000E+00
    -11.659  0.0000E+00  0.0000E+00  0.0000E+00  0.0000E+00  0.0000E+00  0.0000E+00  0.0000E+00  0.0000E+00  0.0000E+00
    -11.561  0.0000E+00  0.0000E+00  0.0000E+00  0.0000E+00  0.0000E+00  0.0000E+00  0.0000E+00  0.0000E+00  0.0000E+00
    -11.463  0.0000E+00  0.0000E+00  0.0000E+00  0.0000E+00  0.0000E+00  0.0000E+00  0.0000E+00  0.0000E+00  0.0000E+00
    -11.365  0.0000E+00  0.0000E+00  0.0000E+00  0.0000E+00  0.0000E+00  0.0000E+00  0.0000E+00  0.0000E+00  0.0000E+00
    -11.267  0.0000E+00  0.0000E+00  0.0000E+00  0.0000E+00  0.0000E+00  0.0000E+00  0.0000E+00  0.0000E+00  0.0000E+00
    -11.169  0.0000E+00  0.0000E+00  0.0000E+00  0.0000E+00  0.0000E+00  0.0000E+00  0.0000E+00  0.0000E+00  0.0000E+00
    -11.071  0.0000E+00  0.0000E+00  0.0000E+00  0.0000E+00  0.0000E+00  0.0000E+00  0.0000E+00  0.0000E+00  0.0000E+00
    -10.973  0.0000E+00  0.0000E+00  0.0000E+00  0.0000E+00  0.0000E+00  0.0000E+00  0.0000E+00  0.0000E+00  0.0000E+00
    -10.875  0.0000E+00  0.0000E+00  0.0000E+00  0.0000E+00  0.0000E+00  0.0000E+00  0.0000E+00  0.0000E+00  0.0000E+00
    -10.777  0.0000E+00  0.0000E+00  0.0000E+00  0.0000E+00  0.0000E+00  0.0000E+00  0.0000E+00  0.0000E+00  0.0000E+00
    -10.679  0.2583E-11  0.1413E-33  0.8232E-34  0.1230E-10  0.0000E+00  0.0000E+00  0.0000E+00  0.0000E+00  0.0000E+00
    -10.581  0.1503E-04  0.8223E-27  0.4792E-27  0.7158E-04  0.0000E+00  0.0000E+00  0.0000E+00  0.0000E+00  0.0000E+00
    -10.483  0.6056E-01  0.3312E-23  0.1930E-23  0.2883E+00  0.0000E+00  0.0000E+00  0.0000E+00  0.0000E+00  0.0000E+00
    -10.385  0.5117E+00  0.2799E-22  0.1631E-22  0.2436E+01  0.0000E+00  0.0000E+00  0.0000E+00  0.0000E+00  0.0000E+00
    -10.287  0.4264E-01  0.2332E-23  0.1359E-23  0.2030E+00  0.0000E+00  0.0000E+00  0.0000E+00  0.0000E+00  0.0000E+00
    -10.189  0.6533E-05  0.3574E-27  0.2083E-27  0.3111E-04  0.0000E+00  0.0000E+00  0.0000E+00  0.0000E+00  0.0000E+00
    -10.091  0.6721E-12  0.3676E-34  0.2142E-34  0.3200E-11  0.0000E+00  0.0000E+00  0.0000E+00  0.0000E+00  0.0000E+00
     -9.993  0.0000E+00  0.0000E+00  0.0000E+00  0.0000E+00  0.0000E+00  0.0000E+00  0.0000E+00  0.0000E+00  0.0000E+00
     -9.895  0.0000E+00  0.0000E+00  0.0000E+00  0.0000E+00  0.0000E+00  0.0000E+00  0.0000E+00  0.0000E+00  0.0000E+00
     -9.797  0.0000E+00  0.0000E+00  0.0000E+00  0.0000E+00  0.0000E+00  0.0000E+00  0.0000E+00  0.0000E+00  0.0000E+00
     -9.699  0.3006E-20  0.5310E-39  0.3317E-39  0.9483E-15  0.0000E+00  0.0000E+00  0.0000E+00  0.0000E+00  0.0000E+00
     -9.602  0.4546E-12  0.8028E-31  0.5016E-31  0.1434E-06  0.0000E+00  0.0000E+00  0.0000E+00  0.0000E+00  0.0000E+00
     -9.504  0.3947E-07  0.6972E-26  0.4355E-26  0.1245E-01  0.0000E+00  0.0000E+00  0.0000E+00  0.0000E+00  0.0000E+00
     -9.406  0.3656E-05  0.6458E-24  0.4034E-24  0.1153E+01  0.0000E+00  0.0000E+00  0.0000E+00  0.0000E+00  0.0000E+00
     -9.308  0.2315E-05  0.4089E-24  0.2554E-24  0.7302E+00  0.0000E+00  0.0000E+00  0.0000E+00  0.0000E+00  0.0000E+00
     -9.210  0.6639E-08  0.1173E-26  0.7325E-27  0.2094E-02  0.0000E+00  0.0000E+00  0.0000E+00  0.0000E+00  0.0000E+00
     -9.112  0.1651E-13  0.2916E-32  0.1822E-32  0.5208E-08  0.0000E+00  0.0000E+00  0.0000E+00  0.0000E+00  0.0000E+00
     -9.014  0.0000E+00  0.0000E+00  0.0000E+00  0.0000E+00  0.0000E+00  0.0000E+00  0.0000E+00  0.0000E+00  0.0000E+00
     -8.916  0.0000E+00  0.0000E+00  0.0000E+00  0.0000E+00  0.0000E+00  0.0000E+00  0.0000E+00  0.0000E+00  0.0000E+00
     -8.818  0.0000E+00  0.0000E+00  0.0000E+00  0.0000E+00  0.0000E+00  0.0000E+00  0.0000E+00  0.0000E+00  0.0000E+00
     -8.720  0.0000E+00  0.0000E+00  0.0000E+00  0.0000E+00  0.0000E+00  0.0000E+00  0.0000E+00  0.0000E+00  0.0000E+00
     -8.622  0.0000E+00  0.0000E+00  0.0000E+00  0.0000E+00  0.0000E+00  0.0000E+00  0.0000E+00  0.0000E+00  0.0000E+00
     -8.524  0.0000E+00  0.0000E+00  0.0000E+00  0.0000E+00  0.0000E+00  0.0000E+00  0.0000E+00  0.0000E+00  0.0000E+00
     -8.426  0.0000E+00  0.0000E+00  0.0000E+00  0.0000E+00  0.0000E+00  0.0000E+00  0.0000E+00  0.0000E+00  0.0000E+00
     -8.328  0.0000E+00  0.0000E+00  0.0000E+00  0.0000E+00  0.0000E+00  0.0000E+00  0.0000E+00  0.0000E+00  0.0000E+00
     -8.230  0.0000E+00  0.0000E+00  0.0000E+00  0.0000E+00  0.0000E+00  0.0000E+00  0.0000E+00  0.0000E+00  0.0000E+00
     -8.132  0.0000E+00  0.0000E+00  0.0000E+00  0.0000E+00  0.0000E+00  0.0000E+00  0.0000E+00  0.0000E+00  0.0000E+00
     -8.034  0.0000E+00  0.0000E+00  0.0000E+00  0.0000E+00  0.0000E+00  0.0000E+00  0.0000E+00  0.0000E+00  0.0000E+00
     -7.936  0.0000E+00  0.0000E+00  0.0000E+00  0.0000E+00  0.0000E+00  0.0000E+00  0.0000E+00  0.0000E+00  0.0000E+00
     -7.838  0.0000E+00  0.0000E+00  0.0000E+00  0.0000E+00  0.0000E+00  0.0000E+00  0.0000E+00  0.0000E+00  0.0000E+00
     -7.740  0.0000E+00  0.0000E+00  0.0000E+00  0.0000E+00  0.0000E+00  0.0000E+00  0.0000E+00  0.0000E+00  0.0000E+00
     -7.642  0.0000E+00  0.0000E+00  0.0000E+00  0.0000E+00  0.0000E+00  0.0000E+00  0.0000E+00  0.0000E+00  0.0000E+00
     -7.544  0.0000E+00  0.0000E+00  0.0000E+00  0.0000E+00  0.0000E+00  0.0000E+00  0.0000E+00  0.0000E+00  0.0000E+00
     -7.446  0.0000E+00  0.0000E+00  0.0000E+00  0.0000E+00  0.0000E+00  0.0000E+00  0.0000E+00  0.0000E+00  0.0000E+00
     -7.348  0.0000E+00  0.0000E+00  0.0000E+00  0.0000E+00  0.0000E+00  0.0000E+00  0.0000E+00  0.0000E+00  0.0000E+00
     -7.250  0.0000E+00  0.0000E+00  0.0000E+00  0.0000E+00  0.0000E+00  0.0000E+00  0.0000E+00  0.0000E+00  0.0000E+00
     -7.153  0.0000E+00  0.0000E+00  0.0000E+00  0.0000E+00  0.0000E+00  0.0000E+00  0.0000E+00  0.0000E+00  0.0000E+00
     -7.055  0.0000E+00  0.0000E+00  0.0000E+00  0.0000E+00  0.0000E+00  0.0000E+00  0.0000E+00  0.0000E+00  0.0000E+00
     -6.957  0.0000E+00  0.0000E+00  0.0000E+00  0.0000E+00  0.0000E+00  0.0000E+00  0.0000E+00  0.0000E+00  0.0000E+00
     -6.859  0.0000E+00  0.0000E+00  0.0000E+00  0.0000E+00  0.0000E+00  0.0000E+00  0.0000E+00  0.0000E+00  0.0000E+00
     -6.761  0.0000E+00  0.0000E+00  0.0000E+00  0.0000E+00  0.0000E+00  0.0000E+00  0.0000E+00  0.0000E+00  0.0000E+00
     -6.663  0.0000E+00  0.0000E+00  0.0000E+00  0.0000E+00  0.0000E+00  0.0000E+00  0.0000E+00  0.0000E+00  0.0000E+00
     -6.565  0.0000E+00  0.0000E+00  0.0000E+00  0.0000E+00  0.0000E+00  0.0000E+00  0.0000E+00  0.0000E+00  0.0000E+00
     -6.467  0.0000E+00  0.0000E+00  0.0000E+00  0.0000E+00  0.0000E+00  0.0000E+00  0.0000E+00  0.0000E+00  0.0000E+00
     -6.369  0.0000E+00  0.0000E+00  0.0000E+00  0.0000E+00  0.0000E+00  0.0000E+00  0.0000E+00  0.0000E+00  0.0000E+00
     -6.271  0.0000E+00  0.0000E+00  0.0000E+00  0.0000E+00  0.0000E+00  0.0000E+00  0.0000E+00  0.0000E+00  0.0000E+00
     -6.173  0.0000E+00  0.0000E+00  0.0000E+00  0.0000E+00  0.0000E+00  0.0000E+00  0.0000E+00  0.0000E+00  0.0000E+00
     -6.075  0.0000E+00  0.0000E+00  0.0000E+00  0.0000E+00  0.0000E+00  0.0000E+00  0.0000E+00  0.0000E+00  0.0000E+00
     -5.977  0.1993E-40  0.1207E-15  0.1207E-15  0.2080E-39  0.0000E+00  0.0000E+00  0.0000E+00  0.0000E+00  0.0000E+00
     -5.879  0.3987E-32  0.2413E-07  0.2413E-07  0.4160E-31  0.0000E+00  0.0000E+00  0.0000E+00  0.0000E+00  0.0000E+00
     -5.781  0.6194E-27  0.3750E-02  0.3750E-02  0.6464E-26  0.0000E+00  0.0000E+00  0.0000E+00  0.0000E+00  0.0000E+00
     -5.683  0.9410E-25  0.5696E+00  0.5696E+00  0.9819E-24  0.0000E+00  0.0000E+00  0.0000E+00  0.0000E+00  0.0000E+00
     -5.585  0.8442E-25  0.5110E+00  0.5110E+00  0.8809E-24  0.0000E+00  0.0000E+00  0.0000E+00  0.0000E+00  0.0000E+00
     -5.487  0.4052E-27  0.2453E-02  0.2453E-02  0.4228E-26  0.0000E+00  0.0000E+00  0.0000E+00  0.0000E+00  0.0000E+00
     -5.389  0.1810E-32  0.1096E-07  0.1096E-07  0.1889E-31  0.0000E+00  0.0000E+00  0.0000E+00  0.0000E+00  0.0000E+00
     -5.291  0.0000E+00  0.0000E+00  0.0000E+00  0.0000E+00  0.0000E+00  0.0000E+00  0.0000E+00  0.0000E+00  0.0000E+00
     -5.193  0.1674E-36  0.1087E-14  0.1087E-14  0.1851E-36  0.0000E+00  0.0000E+00  0.0000E+00  0.0000E+00  0.0000E+00
     -5.095  0.2391E-28  0.1552E-06  0.1552E-06  0.2643E-28  0.0000E+00  0.0000E+00  0.0000E+00  0.0000E+00  0.0000E+00
     -4.997  0.2134E-23  0.1385E-01  0.1385E-01  0.2359E-23  0.0000E+00  0.0000E+00  0.0000E+00  0.0000E+00  0.0000E+00
     -4.899  0.2023E-21  0.1313E+01  0.1313E+01  0.2237E-21  0.0000E+00  0.0000E+00  0.0000E+00  0.0000E+00  0.0000E+00
     -4.801  0.1303E-21  0.8454E+00  0.8454E+00  0.1440E-21  0.0000E+00  0.0000E+00  0.0000E+00  0.0000E+00  0.0000E+00
     -4.704  0.3829E-24  0.2485E-02  0.2485E-02  0.4233E-24  0.0000E+00  0.0000E+00  0.0000E+00  0.0000E+00  0.0000E+00
     -4.606  0.9792E-30  0.6355E-08  0.6355E-08  0.1082E-29  0.0000E+00  0.0000E+00  0.0000E+00  0.0000E+00  0.0000E+00
     -4.508  0.0000E+00  0.0000E+00  0.0000E+00  0.0000E+00  0.0000E+00  0.0000E+00  0.0000E+00  0.0000E+00  0.0000E+00
     -4.410  0.0000E+00  0.0000E+00  0.0000E+00  0.0000E+00  0.0000E+00  0.0000E+00  0.0000E+00  0.0000E+00  0.0000E+00
     -4.312  0.0000E+00  0.0000E+00  0.0000E+00  0.0000E+00  0.0000E+00  0.0000E+00  0.0000E+00  0.0000E+00  0.0000E+00
     -4.214  0.0000E+00  0.0000E+00  0.0000E+00  0.0000E+00  0.0000E+00  0.0000E+00  0.0000E+00  0.0000E+00  0.0000E+00
     -4.116  0.0000E+00  0.0000E+00  0.0000E+00  0.0000E+00  0.0000E+00  0.0000E+00  0.0000E+00  0.0000E+00  0.0000E+00
     -4.018  0.0000E+00  0.0000E+00  0.0000E+00  0.0000E+00  0.0000E+00  0.0000E+00  0.0000E+00  0.0000E+00  0.0000E+00
     -3.920  0.0000E+00  0.0000E+00  0.0000E+00  0.0000E+00  0.0000E+00  0.0000E+00  0.0000E+00  0.0000E+00  0.0000E+00
     -3.822  0.0000E+00  0.0000E+00  0.0000E+00  0.0000E+00  0.0000E+00  0.0000E+00  0.0000E+00  0.0000E+00  0.0000E+00
     -3.724  0.0000E+00  0.0000E+00  0.0000E+00  0.0000E+00  0.0000E+00  0.0000E+00  0.0000E+00  0.0000E+00  0.0000E+00
     -3.626  0.0000E+00  0.0000E+00  0.0000E+00  0.0000E+00  0.0000E+00  0.0000E+00  0.0000E+00  0.0000E+00  0.0000E+00
     -3.528  0.0000E+00  0.0000E+00  0.0000E+00  0.0000E+00  0.0000E+00  0.0000E+00  0.0000E+00  0.0000E+00  0.0000E+00
     -3.430  0.0000E+00  0.0000E+00  0.0000E+00  0.0000E+00  0.0000E+00  0.0000E+00  0.0000E+00  0.0000E+00  0.0000E+00
     -3.332  0.0000E+00  0.0000E+00  0.0000E+00  0.0000E+00  0.0000E+00  0.0000E+00  0.0000E+00  0.0000E+00  0.0000E+00
     -3.234  0.0000E+00  0.0000E+00  0.0000E+00  0.0000E+00  0.0000E+00  0.0000E+00  0.0000E+00  0.0000E+00  0.0000E+00
     -3.136  0.0000E+00  0.0000E+00  0.0000E+00  0.0000E+00  0.0000E+00  0.0000E+00  0.0000E+00  0.0000E+00  0.0000E+00
     -3.038  0.1503E-39  0.1236E-15  0.1236E-15  0.7500E-40  0.0000E+00  0.0000E+00  0.0000E+00  0.0000E+00  0.0000E+00