    2    2    1    1
  0.2120000E+02  0.2650000E-09  0.4000000E-09  0.4000000E-09  0.5000000E-15
  1.000000000000000E-004
  CAR 
 Screening bandgap                       
      8      3      8
 
  0.0000000E+00  0.0000000E+00  0.0000000E+00  0.2000000E+00
    1      -16.984160   1.000000
    2       -9.415878   1.000000
    3       -5.685581   1.000000
    4       -5.685581   1.000000
    5        2.599878   0.000000
    6        5.645731   0.000000
    7        7.292867   0.000000
    8        9.732205   0.000000
 
  0.2000000E+00  0.0000000E+00  0.0000000E+00  0.4000000E+00
    1      -16.504770   1.000000
    2      -10.437566   1.000000
    3       -4.909347   1.000000
    4       -4.909347   1.000000
    5        3.305450   0.000000
    6        6.493368   0.000000
    7        6.493368   0.000000
    8        6.979005   0.000000
 
  0.4000000E+00  0.0000000E+00  0.0000000E+00  0.4000000E+00
    1      -15.263614   1.000000
    2      -12.469171   1.000000
    3       -2.743493   1.000000
    4       -2.743493   1.000000
    5        1.809453   0.000000
    6        1.809453   0.000000
    7        5.322455   0.000000
    8        7.981651   0.000000
