       N       E                     dE             d eps       ncg     rms          rms(c)
DAV:   1    -0.153419243158E+02   -0.15342E+02   -0.18119E-13    24   0.975E-06    0.249E-07
DAV:   2    -0.153419243158E+02   -0.97771E-11   -0.93081E-13    24   0.201E-06
   1 F= -.15341924E+02 E0= -.15341924E+02  d E =-.640444E-17
