 vasp.5.4.1 05Feb16 (build Mar 30 2017 12:50:32) complex                        
  
 executed on             LinuxIFC date 2018.01.11  16:31:07
 running on    1 total cores
 distrk:  each k-point on    1 cores,    1 groups
 distr:  one band on NCORES_PER_BAND=   1 cores,    1 groups


--------------------------------------------------------------------------------------------------------


 INCAR:
 POTCAR:    PAW_PBE C 08Apr2002                   
 POTCAR:    PAW_PBE C 08Apr2002                   
   VRHFIN =C: s2p2                                                              
   LEXCH  = PE                                                                  
   EATOM  =   147.1560 eV,   10.8157 Ry                                         
                                                                                
   TITEL  = PAW_PBE C 08Apr2002                                                 
   LULTRA =        F    use ultrasoft PP ?                                      
   IUNSCR =        1    unscreen: 0-lin 1-nonlin 2-no                           
   RPACOR =    1.200    partial core radius                                     
   POMASS =   12.011; ZVAL   =    4.000    mass and valenz                      
   RCORE  =    1.500    outmost cutoff radius                                   
   RWIGS  =    1.630; RWIGS  =    0.863    wigner-seitz radius (au A)           
   ENMAX  =  400.000; ENMIN  =  300.000 eV                                      
   ICORE  =        2    local potential                                         
   LCOR   =        T    correct aug charges                                     
   LPAW   =        T    paw PP                                                  
   EAUG   =  644.873                                                            
   DEXC   =    0.000                                                            
   RMAX   =    1.529    core radius for proj-oper                               
   RAUG   =    1.300    factor for augmentation sphere                          
   RDEP   =    1.501    radius for radial grids                                 
   RDEPT  =    1.300    core radius for aug-charge                              
                                                                                
   Atomic configuration                                                         
    4 entries                                                                   
     n  l   j            E        occ.                                          
     1  0  0.50      -273.3789   2.0000                                         
     2  0  0.50       -13.7508   2.0000                                         
     2  1  0.50        -5.2854   2.0000                                         
     3  2  1.50        -5.4423   0.0000                                         
   Description                                                                  
     l       E           TYP  RCUT    TYP  RCUT                                 
     0    -13.7508458     23  1.200                                             
     0     -8.2022199     23  1.200                                             
     1     -5.2854383     23  1.500                                             
     1     34.0145650     23  1.500                                             
     2     -5.4423304      7  1.500                                             
  local pseudopotential read in
  partial core-charges read in
  partial kinetic energy density read in
  atomic valenz-charges read in
  non local Contribution for L=           0  read in
    real space projection operators read in
  non local Contribution for L=           0  read in
    real space projection operators read in
  non local Contribution for L=           1  read in
    real space projection operators read in
  non local Contribution for L=           1  read in
    real space projection operators read in
    PAW grid and wavefunctions read in
 
   number of l-projection  operators is LMAX  =           4
   number of lm-projection operators is LMMAX =           8
 
  PAW_PBE C 08Apr2002                   :
 energy of atom  1       EATOM= -147.1560
 kinetic energy error for atom=    0.2561 (will be added to EATOM!!)
 
 
 POSCAR: Polyynes                                
  positions in cartesian coordinates
  No initial velocities read in
 exchange correlation table for  LEXCH =        8
   RHO(1)=    0.500       N(1)  =     2000
   RHO(2)=  100.500       N(2)  =     4000
 


--------------------------------------------------------------------------------------------------------


 ion  position               nearest neighbor table
   1  0.274  0.500  0.500-   2 1.20   2 1.45
   2  0.726  0.500  0.500-   1 1.20   1 1.45
 

IMPORTANT INFORMATION: All symmetrisations will be switched off!
NOSYMM: (Re-)initialisation of all symmetry stuff for point group C_1.

 
 
 KPOINTS: Auto                                    

Automatic generation of k-mesh.
Space group operators:
 irot       det(A)        alpha          n_x          n_y          n_z        tau_x        tau_y        tau_z
    1     1.000000     0.000000     1.000000     0.000000     0.000000     0.000000     0.000000     0.000000
 
 Subroutine IBZKPT returns following result:
 ===========================================
 
 Found      3 irreducible k-points:
 
 Following reciprocal coordinates:
            Coordinates               Weight
  0.000000  0.000000  0.000000      1.000000
  0.200000  0.000000  0.000000      2.000000
  0.400000  0.000000  0.000000      2.000000
 
 Following cartesian coordinates:
            Coordinates               Weight
  0.000000  0.000000  0.000000      1.000000
  0.075472  0.000000  0.000000      2.000000
  0.150943  0.000000  0.000000      2.000000
 
 
 Subroutine IBZKPT_HF returns following result:
 ==============================================
 
 Found      5 k-points in 1st BZ
 the following      5 k-points will be used (e.g. in the exchange kernel)
 Following reciprocal coordinates:   # in IRBZ
  0.000000  0.000000  0.000000    0.20000000   1 t-inv F
  0.200000  0.000000  0.000000    0.20000000   2 t-inv F
  0.400000  0.000000  0.000000    0.20000000   3 t-inv F
 -0.200000  0.000000  0.000000    0.20000000   2 t-inv T
 -0.400000  0.000000  0.000000    0.20000000   3 t-inv T


--------------------------------------------------------------------------------------------------------




 Dimension of arrays:
   k-points           NKPTS =      3   k-points in BZ     NKDIM =      3   number of bands    NBANDS=      8
   number of dos      NEDOS =    301   number of ions     NIONS =      2
   non local maximal  LDIM  =      4   non local SUM 2l+1 LMDIM =      8
   total plane-waves  NPLWV =   3888
   max r-space proj   IRMAX =      1   max aug-charges    IRDMAX=   1281
   dimension x,y,z NGX =    12 NGY =   18 NGZ =   18
   dimension x,y,z NGXF=    24 NGYF=   36 NGZF=   36
   support grid    NGXF=    24 NGYF=   36 NGZF=   36
   ions per type =               2
 NGX,Y,Z   is equivalent  to a cutoff of   7.53,  7.48,  7.48 a.u.
 NGXF,Y,Z  is equivalent  to a cutoff of  15.06, 14.96, 14.96 a.u.


 I would recommend the setting:
   dimension x,y,z NGX =    11 NGY =   17 NGZ =   17
 SYSTEM =  Screening bandgap                       
 POSCAR =  Polyynes                                

 Startparameter for this run:
   NWRITE =      2    write-flag & timer
   PREC   = normal    normal or accurate (medium, high low for compatibility)
   ISTART =      1    job   : 0-new  1-cont  2-samecut
   ICHARG =      0    charge: 1-file 2-atom 10-const
   ISPIN  =      1    spin polarized calculation?
   LNONCOLLINEAR =      F non collinear calculations
   LSORBIT =      F    spin-orbit coupling
   INIWAV =      1    electr: 0-lowe 1-rand  2-diag
   LASPH  =      F    aspherical Exc in radial PAW
   METAGGA=      F    non-selfconsistent MetaGGA calc.

 Electronic Relaxation 1
   ENCUT  =  300.0 eV  22.05 Ry    4.70 a.u.   3.74  5.65  5.65*2*pi/ulx,y,z
   ENINI  =  300.0     initial cutoff
   ENAUG  =  644.9 eV  augmentation charge cutoff
   NELM   =     60;   NELMIN=  2; NELMDL=  0     # of ELM steps 
   EDIFF  = 0.1E-03   stopping-criterion for ELM
   LREAL  =      F    real-space projection
   NLSPLINE    = F    spline interpolate recip. space projectors
   LCOMPAT=      F    compatible to vasp.4.4
   GGA_COMPAT  = T    GGA compatible to vasp.4.4-vasp.4.6
   LMAXPAW     = -100 max onsite density
   LMAXMIX     =    2 max onsite mixed and CHGCAR
   VOSKOWN=      0    Vosko Wilk Nusair interpolation
   ROPT   =    0.00000
 Ionic relaxation
   EDIFFG = 0.1E-02   stopping-criterion for IOM
   NSW    =      0    number of steps for IOM
   NBLOCK =      1;   KBLOCK =      1    inner block; outer block 
   IBRION =     -1    ionic relax: 0-MD 1-quasi-New 2-CG
   NFREE  =      0    steps in history (QN), initial steepest desc. (CG)
   ISIF   =      2    stress and relaxation
   IWAVPR =     10    prediction:  0-non 1-charg 2-wave 3-comb
   ISYM   =      0    0-nonsym 1-usesym 2-fastsym
   LCORR  =      T    Harris-Foulkes like correction to forces

   POTIM  = 0.5000    time-step for ionic-motion
   TEIN   =    0.0    initial temperature
   TEBEG  =    0.0;   TEEND  =   0.0 temperature during run
   SMASS  =  -3.00    Nose mass-parameter (am)
   estimated Nose-frequenzy (Omega)   =  0.10E-29 period in steps =****** mass=  -0.160E-27a.u.
   SCALEE = 1.0000    scale energy and forces
   NPACO  =    256;   APACO  = 16.0  distance and # of slots for P.C.
   PSTRESS=    0.0 pullay stress

  Mass of Ions in am
   POMASS =  12.01
  Ionic Valenz
   ZVAL   =   4.00
  Atomic Wigner-Seitz radii
   RWIGS  =  -1.00
  virtual crystal weights 
   VCA    =   1.00
   NELECT =       8.0000    total number of electrons
   NUPDOWN=      -1.0000    fix difference up-down

 DOS related values:
   EMIN   =  10.00;   EMAX   =-10.00  energy-range for DOS
   EFERMI =   0.00
   ISMEAR =     0;   SIGMA  =   0.05  broadening in eV -4-tet -1-fermi 0-gaus

 Electronic relaxation 2 (details)
   IALGO  =     38    algorithm
   LDIAG  =      T    sub-space diagonalisation (order eigenvalues)
   LSUBROT=      F    optimize rotation matrix (better conditioning)
   TURBO    =      0    0=normal 1=particle mesh
   IRESTART =      0    0=no restart 2=restart with 2 vectors
   NREBOOT  =      0    no. of reboots
   NMIN     =      0    reboot dimension
   EREF     =   0.00    reference energy to select bands
   IMIX   =      4    mixing-type and parameters
     AMIX     =   0.40;   BMIX     =  1.00
     AMIX_MAG =   1.60;   BMIX_MAG =  1.00
     AMIN     =   0.10
     WC   =   100.;   INIMIX=   1;  MIXPRE=   1;  MAXMIX= -45

 Intra band minimization:
   WEIMIN = 0.0000     energy-eigenvalue tresh-hold
   EBREAK =  0.31E-05  absolut break condition
   DEPER  =   0.30     relativ break condition  

   TIME   =   0.40     timestep for ELM

  volume/ion in A,a.u.               =      21.20       143.06
  Fermi-wavevector in a.u.,A,eV,Ry     =   0.938965  1.774387 11.995656  0.881656
  Thomas-Fermi vector in A             =   2.066230
 
 Write flags
   LWAVE  =      T    write WAVECAR
   LCHARG =      T    write CHGCAR
   LVTOT  =      F    write LOCPOT, total local potential
   LVHAR  =      F    write LOCPOT, Hartree potential only
   LELF   =      F    write electronic localiz. function (ELF)
   LORBIT =     12    0 simple, 1 ext, 2 COOP (PROOUT)


 Dipole corrections
   LMONO  =      F    monopole corrections only (constant potential shift)
   LDIPOL =      F    correct potential (dipole corrections)
   IDIPOL =      0    1-x, 2-y, 3-z, 4-all directions 
   EPSILON=  1.0000000 bulk dielectric constant

 Exchange correlation treatment:
   GGA     =    PE    GGA type
   LEXCH   =     8    internal setting for exchange type
   VOSKOWN=      0    Vosko Wilk Nusair interpolation
   LHFCALC =     F    Hartree Fock is set to
   LHFONE  =     F    Hartree Fock one center treatment
   AEXX    =    0.0000 exact exchange contribution

 Linear response parameters
   LEPSILON=     F    determine dielectric tensor
   LRPA    =     F    only Hartree local field effects (RPA)
   LNABLA  =     F    use nabla operator in PAW spheres
   LVEL    =     F    velocity operator in full k-point grid
   LINTERFAST=   F  fast interpolation
   KINTER  =     0    interpolate to denser k-point grid
   CSHIFT  =0.1000    complex shift for real part using Kramers Kronig
   OMEGAMAX=  -1.0    maximum frequency
   DEG_THRESHOLD= 0.2000000E-02 threshold for treating states as degnerate
   RTIME   =    0.100 relaxation time in fs

 Orbital magnetization related:
   ORBITALMAG=     F  switch on orbital magnetization
   LCHIMAG   =     F  perturbation theory with respect to B field
   DQ        =  0.001000  dq finite difference perturbation B field



--------------------------------------------------------------------------------------------------------


 Static calculation
 charge density and potential will be updated during run
 non-spin polarized calculation
 Variant of blocked Davidson
 Davidson routine will perform the subspace rotation
 perform sub-space diagonalisation
    after iterative eigenvector-optimisation
 modified Broyden-mixing scheme, WC =      100.0
 initial mixing is a Kerker type mixing with AMIX =  0.4000 and BMIX =      1.0000
 Hartree-type preconditioning will be used
 using additional bands            4
 reciprocal scheme for non local part
 use partial core corrections
 calculate Harris-corrections to forces 
   (improved forces if not selfconsistent)
 use gradient corrections 
 use of overlap-Matrix (Vanderbilt PP)
 Gauss-broadening in eV      SIGMA  =   0.05


--------------------------------------------------------------------------------------------------------


  energy-cutoff  :      300.00
  volume of cell :       42.40
      direct lattice vectors                 reciprocal lattice vectors
     2.650000000  0.000000000  0.000000000     0.377358491  0.000000000  0.000000000
     0.000000000  4.000000000  0.000000000     0.000000000  0.250000000  0.000000000
     0.000000000  0.000000000  4.000000000     0.000000000  0.000000000  0.250000000

  length of vectors
     2.650000000  4.000000000  4.000000000     0.377358491  0.250000000  0.250000000


 
 old parameters found on file WAVECAR:
  energy-cutoff  :      300.00
  volume of cell :       42.40
      direct lattice vectors                 reciprocal lattice vectors
     2.650000000  0.000000000  0.000000000     0.377358491  0.000000000  0.000000000
     0.000000000  4.000000000  0.000000000     0.000000000  0.250000000  0.000000000
     0.000000000  0.000000000  4.000000000     0.000000000  0.000000000  0.250000000

  length of vectors

 
 k-points in units of 2pi/SCALE and weight: Auto                                    
   0.00000000  0.00000000  0.00000000       0.200
   0.07547170  0.00000000  0.00000000       0.400
   0.15094340  0.00000000  0.00000000       0.400
 
 k-points in reciprocal lattice and weights: Auto                                    
   0.00000000  0.00000000  0.00000000       0.200
   0.20000000  0.00000000  0.00000000       0.400
   0.40000000  0.00000000  0.00000000       0.400
 
 position of ions in fractional coordinates (direct lattice) 
   0.27358491  0.50000000  0.50000000
   0.72641509  0.50000000  0.50000000
 
 position of ions in cartesian coordinates  (Angst):
   0.72500000  2.00000000  2.00000000
   1.92500000  2.00000000  2.00000000
 


--------------------------------------------------------------------------------------------------------


 k-point  1 :   0.0000 0.0000 0.0000  plane waves:     503
 k-point  2 :   0.2000 0.0000 0.0000  plane waves:     491
 k-point  3 :   0.4000 0.0000 0.0000  plane waves:     512

 maximum and minimum number of plane-waves per node :       512      491

 maximum number of plane-waves:       512
 maximum index in each direction: 
   IXMAX=    3   IYMAX=    5   IZMAX=    5
   IXMIN=   -4   IYMIN=   -5   IZMIN=   -5

 WARNING: aliasing errors must be expected set NGX to  16 to avoid them
 WARNING: aliasing errors must be expected set NGY to  22 to avoid them
 WARNING: aliasing errors must be expected set NGZ to  22 to avoid them
 aliasing errors are usually negligible using standard VASP settings
 and one can safely disregard these warnings

 serial   3D FFT for wavefunctions
 parallel 3D FFT for charge:
    minimum data exchange during FFTs selected (reduces bandwidth)


 total amount of memory used by VASP on root node    35042. kBytes
========================================================================

   base      :      30000. kBytes
   nonl-proj :        114. kBytes
   fftplans  :       2108. kBytes
   grid      :       2612. kBytes
   one-center:          6. kBytes
   wavefun   :        202. kBytes
 
     INWAV:  cpu time    0.0010: real time    0.0015
 Broyden mixing: mesh for mixing (old mesh)
   NGX =  7   NGY = 11   NGZ = 11
  (NGX  = 24   NGY  = 36   NGZ  = 36)
  gives a total of    847 points

 charge density for first step will be calculated from the start-wavefunctions


--------------------------------------------------------------------------------------------------------


 Maximum index for augmentation-charges         1056 (set IRDMAX)


--------------------------------------------------------------------------------------------------------


 initial charge from wavefunction
 First call to EWALD:  gamma=   0.508
 Maximum number of real-space cells 3x 2x 2
 Maximum number of reciprocal cells 2x 3x 3

 FEWALD executed in parallel
    FEWALD:  cpu time    0.0020: real time    0.0019


----------------------------------------- Iteration    1(   1)  ---------------------------------------


    POTLOK:  cpu time    0.0200: real time    0.0207
    SETDIJ:  cpu time    0.0030: real time    0.0030
     EDDAV:  cpu time    0.4589: real time    0.0397
       DOS:  cpu time    0.0000: real time    0.0001
    CHARGE:  cpu time    0.0480: real time    0.0021
    MIXING:  cpu time    0.0240: real time    0.0011
    --------------------------------------------
      LOOP:  cpu time    0.5569: real time    0.0759

 eigenvalue-minimisations  :    24
 total energy-change (2. order) :-0.1534192E+02  (-0.1811884E-13)
 number of electron       8.0000006 magnetization 
 augmentation part        0.1810201 magnetization 

 Broyden mixing:
  rms(total) = 0.24887E-07    rms(broyden)= 0.24854E-07
  rms(prec ) = 0.68526E-07
  weight for this iteration     100.00

 Free energy of the ion-electron system (eV)
  ---------------------------------------------------
  alpha Z        PSCENC =         7.74969019
  Ewald energy   TEWEN  =      -108.55100206
  -Hartree energ DENC   =      -162.53319461
  -exchange      EXHF   =         0.00000000
  -V(xc)+E(xc)   XCENC  =        26.55777121
  PAW double counting   =       811.56785860     -812.83973283
  entropy T*S    EENTRO =        -0.00000000
  eigenvalues    EBANDS =       -71.09312213
  atomic energy  EATOM  =       293.79980732
  Solvation  Ediel_sol  =         0.00000000
  ---------------------------------------------------
  free energy    TOTEN  =       -15.34192432 eV

  energy without entropy =      -15.34192432  energy(sigma->0) =      -15.34192432


--------------------------------------------------------------------------------------------------------




----------------------------------------- Iteration    1(   2)  ---------------------------------------


    POTLOK:  cpu time    0.4739: real time    0.0199
    SETDIJ:  cpu time    0.0660: real time    0.0029
     EDDAV:  cpu time    0.1830: real time    0.0077
       DOS:  cpu time    0.0000: real time    0.0000
    --------------------------------------------
      LOOP:  cpu time    0.9029: real time    0.0380

 eigenvalue-minimisations  :    24
 total energy-change (2. order) :-0.9777068E-11  (-0.9308110E-13)
 number of electron       8.0000006 magnetization 
 augmentation part        0.1810201 magnetization 

 Free energy of the ion-electron system (eV)
  ---------------------------------------------------
  alpha Z        PSCENC =         7.74969019
  Ewald energy   TEWEN  =      -108.55100206
  -Hartree energ DENC   =      -162.53319525
  -exchange      EXHF   =         0.00000000
  -V(xc)+E(xc)   XCENC  =        26.55777125
  PAW double counting   =       811.56785988     -812.83973412
  entropy T*S    EENTRO =        -0.00000000
  eigenvalues    EBANDS =       -71.09312153
  atomic energy  EATOM  =       293.79980732
  Solvation  Ediel_sol  =         0.00000000
  ---------------------------------------------------
  free energy    TOTEN  =       -15.34192432 eV

  energy without entropy =      -15.34192432  energy(sigma->0) =      -15.34192432


--------------------------------------------------------------------------------------------------------




 average (electrostatic) potential at core
  the test charge radii are     0.6991
  (the norm of the test charge is              1.0000)
       1 -56.3650       2 -56.3650
 
 
 
 E-fermi :  -2.4443     XC(G=0):  -6.3385     alpha+bet : -4.7275


 k-point     1 :       0.0000    0.0000    0.0000
  band No.  band energies     occupation 
      1     -16.9842      2.00000
      2      -9.4159      2.00000
      3      -5.6856      2.00000
      4      -5.6856      2.00000
      5       2.5999      0.00000
      6       5.6457      0.00000
      7       7.2929      0.00000
      8       9.7322      0.00000

 k-point     2 :       0.2000    0.0000    0.0000
  band No.  band energies     occupation 
      1     -16.5048      2.00000
      2     -10.4376      2.00000
      3      -4.9093      2.00000
      4      -4.9093      2.00000
      5       3.3054      0.00000
      6       6.4934      0.00000
      7       6.4934      0.00000
      8       6.9790      0.00000

 k-point     3 :       0.4000    0.0000    0.0000
  band No.  band energies     occupation 
      1     -15.2636      2.00000
      2     -12.4692      2.00000
      3      -2.7435      2.00000
      4      -2.7435      2.00000
      5       1.8095      0.00000
      6       1.8095      0.00000
      7       5.3225      0.00000
      8       7.9817      0.00000


--------------------------------------------------------------------------------------------------------


 soft charge-density along one line, spin component           1
         0         1         2         3         4         5         6         7         8         9
 total charge-density along one line
 
 pseudopotential strength for first ion, spin component:           1
 10.094   0.000  13.420   0.000   0.000   0.000  -0.000   0.000   0.000   0.000  -0.000   0.000   0.000   0.000  -0.006   0.000
 13.420   0.000  17.843   0.000   0.000   0.000  -0.000   0.000   0.001   0.000  -0.000   0.000   0.000   0.000  -0.009   0.000
  0.000   0.000   0.000   0.000  -4.242   0.000   0.000   0.000  -0.000   0.000   8.305   0.000  -0.000   0.000   0.000   0.000
 -0.000   0.000  -0.000   0.000   0.000   0.000  -4.242   0.000  -0.000   0.000  -0.000   0.000   8.305   0.000   0.000   0.000
  0.000   0.000   0.001   0.000  -0.000   0.000  -0.000   0.000  -4.279   0.000   0.000   0.000   0.000   0.000   8.366   0.000
 -0.000   0.000  -0.000   0.000   8.305   0.000  -0.000   0.000   0.000   0.000 -18.389   0.000   0.000   0.000  -0.000   0.000
  0.000   0.000   0.000   0.000  -0.000   0.000   8.305   0.000   0.000   0.000   0.000   0.000 -18.389   0.000  -0.000   0.000
 -0.006   0.000  -0.009   0.000   0.000   0.000   0.000   0.000   8.366   0.000  -0.000   0.000  -0.000   0.000 -18.491   0.000
 total augmentation occupancy for first ion, spin component:           1
  7.004  -2.883   0.000   0.000   0.786   0.000   0.000   0.121
 -2.883   1.212  -0.000  -0.000  -0.395  -0.000  -0.000  -0.059
  0.000  -0.000   1.461   0.000   0.000   0.125   0.000   0.000
  0.000  -0.000   0.000   1.461   0.000  -0.000   0.125   0.000
  0.786  -0.395   0.000   0.000   2.230   0.000   0.000   0.278
  0.000  -0.000   0.125  -0.000   0.000   0.011   0.000   0.000
  0.000  -0.000   0.000   0.125   0.000   0.000   0.011   0.000
  0.121  -0.059   0.000   0.000   0.278   0.000   0.000   0.035


------------------------ aborting loop because EDIFF is reached ----------------------------------------


 


 total charge     
 
# of ion     s       p       d       tot
----------------------------------------
  1        0.862   1.814   0.000   2.676
  2        0.862   1.814   0.000   2.676
------------------------------------------------
tot        1.724   3.627   0.000   5.352
 
    CHARGE:  cpu time    0.0440: real time    0.0018
    FORLOC:  cpu time    0.0430: real time    0.0018
    FORNL :  cpu time    0.0710: real time    0.0030
    STRESS:  cpu time    0.2790: real time    0.0116
    FORCOR:  cpu time    0.5169: real time    0.0215
    FORHAR:  cpu time    0.1390: real time    0.0058
    MIXING:  cpu time    0.0250: real time    0.0010
    OFIELD:  cpu time    0.0000: real time    0.0000

  FORCE on cell =-STRESS in cart. coord.  units (eV):
  Direction    XX          YY          ZZ          XY          YZ          ZX
  --------------------------------------------------------------------------------------
  Alpha Z     7.74969     7.74969     7.74969
  Ewald     239.19842  -173.87477  -173.87477    -0.00000    -0.00000     0.00000
  Hartree   159.77868     1.37726     1.37726     0.00000    -0.00000     0.00000
  E(xc)     -28.39606   -29.89324   -29.89324     0.00000    -0.00000     0.00000
  Local    -467.95857    63.16683    63.16683     0.00000    -0.00000     0.00000
  n-local    -5.13202    -7.88948    -7.88948     0.00000    -0.00000     0.00000
  augment    -0.91462    -0.62545    -0.62545    -0.00000    -0.00000     0.00000
  Kinetic    89.66459   140.35277   140.35277    -0.00000     0.00000    -0.00000
  Fock        0.00000     0.00000     0.00000     0.00000     0.00000     0.00000
  -------------------------------------------------------------------------------------
  Total      -6.00988     0.36361     0.36361    -0.00000     0.00000     0.00000
  in kB    -227.09665    13.73986    13.73986    -0.00000     0.00000     0.00000
  external pressure =      -66.54 kB  Pullay stress =        0.00 kB


 VOLUME and BASIS-vectors are now :
 -----------------------------------------------------------------------------
  energy-cutoff  :      300.00
  volume of cell :       42.40
      direct lattice vectors                 reciprocal lattice vectors
     2.650000000  0.000000000  0.000000000     0.377358491  0.000000000  0.000000000
     0.000000000  4.000000000  0.000000000     0.000000000  0.250000000  0.000000000
     0.000000000  0.000000000  4.000000000     0.000000000  0.000000000  0.250000000

  length of vectors
     2.650000000  4.000000000  4.000000000     0.377358491  0.250000000  0.250000000


 FORCES acting on ions
    electron-ion (+dipol)            ewald-force                    non-local-force                 convergence-correction
 -----------------------------------------------------------------------------------------------
   0.496E+02 0.757E-10 0.437E-10   -.530E+02 0.165E-16 0.778E-17   -.332E+01 -.587E-10 0.800E-10   -.540E-07 -.779E-10 -.530E-10
   -.496E+02 0.205E-10 0.202E-09   0.530E+02 -.864E-17 -.778E-17   0.332E+01 -.887E-10 -.203E-10   0.553E-07 -.336E-10 -.736E-10
 -----------------------------------------------------------------------------------------------
   0.459E-08 0.962E-10 0.245E-09   0.000E+00 0.783E-17 0.000E+00   -.566E-08 -.147E-09 0.597E-10   0.130E-08 -.111E-09 -.127E-09
 
 
 POSITION                                       TOTAL-FORCE (eV/Angst)
 -----------------------------------------------------------------------------------
      0.72500      2.00000      2.00000        -6.774898      0.000000     -0.000000
      1.92500      2.00000      2.00000         6.774898     -0.000000      0.000000
 -----------------------------------------------------------------------------------
    total drift:                                0.000000     -0.000000      0.000000


--------------------------------------------------------------------------------------------------------



  FREE ENERGIE OF THE ION-ELECTRON SYSTEM (eV)
  ---------------------------------------------------
  free  energy   TOTEN  =       -15.34192432 eV

  energy  without entropy=      -15.34192432  energy(sigma->0) =      -15.34192432
 


--------------------------------------------------------------------------------------------------------


    POTLOK:  cpu time    0.5529: real time    0.0231


--------------------------------------------------------------------------------------------------------


 writing wavefunctions
     LOOP+:  cpu time    9.1346: real time    0.4803
    4ORBIT:  cpu time    0.0000: real time    0.0000
 


 total charge     
 
# of ion     s       p       d       tot
----------------------------------------
  1        0.862   1.814   0.000   2.676
  2        0.862   1.814   0.000   2.676
------------------------------------------------
tot        1.724   3.627   0.000   5.352
 

 total amount of memory used by VASP on root node    35042. kBytes
========================================================================

   base      :      30000. kBytes
   nonl-proj :        114. kBytes
   fftplans  :       2108. kBytes
   grid      :       2612. kBytes
   one-center:          6. kBytes
   wavefun   :        202. kBytes
 
  
  
 General timing and accounting informations for this job:
 ========================================================
  
                  Total CPU time used (sec):        9.578
                            User time (sec):        8.383
                          System time (sec):        1.195
                         Elapsed time (sec):        0.981
  
                   Maximum memory used (kb):      141900.
                   Average memory used (kb):           0.
  
                          Minor page faults:         7198
                          Major page faults:            0
                 Voluntary context switches:          562
