PROCAR lm decomposed + phase
# of k-points:    3         # of bands:   8         # of ions:   2

 k-point    1 :    0.00000000 0.00000000 0.00000000     weight = 0.20000000

band   1 # energy  -16.98415982 # occ.  2.00000000
 
ion      s     py     pz     px    dxy    dyz    dz2    dxz    dx2    tot
  1  0.351  0.000  0.000  0.011  0.000  0.000  0.000  0.000  0.000  0.362
  2  0.351  0.000  0.000  0.011  0.000  0.000  0.000  0.000  0.000  0.362
tot  0.701  0.000  0.000  0.023  0.000  0.000  0.000  0.000  0.000  0.724
ion      s     py     pz     px    dxy    dyz    dz2    dxz    dx2
  1 -0.427  0.000  0.000 -0.088  0.000  0.000  0.000  0.000  0.000
  1 -0.958 -0.000 -0.000 -0.197  0.000  0.000  0.000  0.000  0.000
  2 -0.427 -0.000 -0.000  0.088  0.000  0.000  0.000  0.000  0.000
  2 -0.958 -0.000 -0.000  0.197  0.000  0.000  0.000  0.000  0.000
 
band   2 # energy   -9.41587827 # occ.  2.00000000
 
ion      s     py     pz     px    dxy    dyz    dz2    dxz    dx2    tot
  1  0.000  0.000  0.000  0.465  0.000  0.000  0.000  0.000  0.000  0.465
  2  0.000  0.000  0.000  0.465  0.000  0.000  0.000  0.000  0.000  0.465
tot  0.000  0.000  0.000  0.930  0.000  0.000  0.000  0.000  0.000  0.930
ion      s     py     pz     px    dxy    dyz    dz2    dxz    dx2
  1 -0.000 -0.000 -0.000 -0.323  0.000  0.000  0.000  0.000  0.000
  1 -0.000  0.000 -0.000 -1.248  0.000  0.000  0.000  0.000  0.000
  2 -0.000  0.000 -0.000  0.323  0.000  0.000  0.000  0.000  0.000
  2 -0.000  0.000 -0.000  1.248  0.000  0.000  0.000  0.000  0.000
 
band   3 # energy   -5.68558126 # occ.  2.00000000
 
ion      s     py     pz     px    dxy    dyz    dz2    dxz    dx2    tot
  1  0.000  0.254  0.012  0.000  0.000  0.000  0.000  0.000  0.000  0.266
  2  0.000  0.254  0.012  0.000  0.000  0.000  0.000  0.000  0.000  0.266
tot  0.000  0.508  0.024  0.000  0.000  0.000  0.000  0.000  0.000  0.532
ion      s     py     pz     px    dxy    dyz    dz2    dxz    dx2
  1  0.000  0.784  0.170  0.000  0.000  0.000  0.000  0.000  0.000
  1  0.000 -0.497 -0.108 -0.000  0.000  0.000  0.000  0.000  0.000
  2  0.000  0.784  0.170 -0.000  0.000  0.000  0.000  0.000  0.000
  2  0.000 -0.497 -0.108  0.000  0.000  0.000  0.000  0.000  0.000
 
band   4 # energy   -5.68558125 # occ.  2.00000000
 
ion      s     py     pz     px    dxy    dyz    dz2    dxz    dx2    tot
  1  0.000  0.012  0.254  0.000  0.000  0.000  0.000  0.000  0.000  0.266
  2  0.000  0.012  0.254  0.000  0.000  0.000  0.000  0.000  0.000  0.266
tot  0.000  0.024  0.508  0.000  0.000  0.000  0.000  0.000  0.000  0.532
ion      s     py     pz     px    dxy    dyz    dz2    dxz    dx2
  1 -0.000  0.093 -0.428  0.000  0.000  0.000  0.000  0.000  0.000
  1  0.000 -0.179  0.823 -0.000  0.000  0.000  0.000  0.000  0.000
  2 -0.000  0.093 -0.428 -0.000  0.000  0.000  0.000  0.000  0.000
  2  0.000 -0.179  0.823  0.000  0.000  0.000  0.000  0.000  0.000
 
band   5 # energy    2.59987829 # occ.  0.00000000
 
ion      s     py     pz     px    dxy    dyz    dz2    dxz    dx2    tot
  1  0.038  0.000  0.000  0.000  0.000  0.000  0.000  0.000  0.000  0.038
  2  0.038  0.000  0.000  0.000  0.000  0.000  0.000  0.000  0.000  0.038
tot  0.075  0.000  0.000  0.000  0.000  0.000  0.000  0.000  0.000  0.076
ion      s     py     pz     px    dxy    dyz    dz2    dxz    dx2
  1 -0.049  0.000 -0.000  0.009  0.000  0.000  0.000  0.000  0.000
  1  0.123 -0.000  0.000 -0.022  0.000  0.000  0.000  0.000  0.000
  2 -0.049 -0.000  0.000 -0.009  0.000  0.000  0.000  0.000  0.000
  2  0.123  0.000 -0.000  0.022  0.000  0.000  0.000  0.000  0.000
 
band   6 # energy    5.64573067 # occ.  0.00000000
 
ion      s     py     pz     px    dxy    dyz    dz2    dxz    dx2    tot
  1  0.277  0.000  0.000  0.018  0.000  0.000  0.000  0.000  0.000  0.295
  2  0.277  0.000  0.000  0.018  0.000  0.000  0.000  0.000  0.000  0.295
tot  0.554  0.000  0.000  0.036  0.000  0.000  0.000  0.000  0.000  0.590
ion      s     py     pz     px    dxy    dyz    dz2    dxz    dx2
  1  0.069  0.000 -0.000 -0.054  0.000  0.000  0.000  0.000  0.000
  1 -0.232 -0.000 -0.000  0.182  0.000  0.000  0.000  0.000  0.000
  2 -0.069 -0.000  0.000 -0.054  0.000  0.000  0.000  0.000  0.000
  2  0.232  0.000  0.000  0.182  0.000  0.000  0.000  0.000  0.000
 
band   7 # energy    7.29286690 # occ.  0.00000000
 
ion      s     py     pz     px    dxy    dyz    dz2    dxz    dx2    tot
  1  0.000  0.000  0.000  0.000  0.000  0.000  0.000  0.000  0.000  0.000
  2  0.000  0.000  0.000  0.000  0.000  0.000  0.000  0.000  0.000  0.000
tot  0.000  0.000  0.000  0.000  0.000  0.000  0.000  0.000  0.000  0.000
ion      s     py     pz     px    dxy    dyz    dz2    dxz    dx2
  1  0.000 -0.000  0.000  0.000  0.000  0.000  0.000  0.000  0.000
  1 -0.000 -0.000  0.000  0.000  0.000  0.000  0.000  0.000  0.000
  2  0.000  0.000 -0.000  0.000  0.000  0.000  0.000  0.000  0.000
  2 -0.000  0.000 -0.000  0.000  0.000  0.000  0.000  0.000  0.000
 
band   8 # energy    9.73220485 # occ.  0.00000000
 
ion      s     py     pz     px    dxy    dyz    dz2    dxz    dx2    tot
  1  0.000  0.069  0.282  0.000  0.000  0.000  0.000  0.000  0.000  0.351
  2  0.000  0.069  0.282  0.000  0.000  0.000  0.000  0.000  0.000  0.351
tot  0.000  0.138  0.563  0.000  0.000  0.000  0.000  0.000  0.000  0.701
ion      s     py     pz     px    dxy    dyz    dz2    dxz    dx2
  1  0.000  0.234 -0.258 -0.000  0.000  0.000  0.000  0.000  0.000
  1 -0.000 -0.236 -0.620 -0.000  0.000  0.000  0.000  0.000  0.000
  2  0.000 -0.234  0.258  0.000  0.000  0.000  0.000  0.000  0.000
  2 -0.000  0.236  0.620 -0.000  0.000  0.000  0.000  0.000  0.000
 

 k-point    2 :    0.20000000 0.00000000 0.00000000     weight = 0.40000000

band   1 # energy  -16.50477017 # occ.  2.00000000
 
ion      s     py     pz     px    dxy    dyz    dz2    dxz    dx2    tot
  1  0.336  0.000  0.000  0.034  0.000  0.000  0.000  0.000  0.000  0.370
  2  0.336  0.000  0.000  0.034  0.000  0.000  0.000  0.000  0.000  0.370
tot  0.673  0.000  0.000  0.068  0.000  0.000  0.000  0.000  0.000  0.741
ion      s     py     pz     px    dxy    dyz    dz2    dxz    dx2
  1  0.287  0.000 -0.000  0.346  0.000  0.000  0.000  0.000  0.000
  1 -0.966 -0.000  0.000 -0.176  0.000  0.000  0.000  0.000  0.000
  2  0.148  0.000  0.000  0.239  0.000  0.000  0.000  0.000  0.000
  2 -0.997 -0.000 -0.000  0.306  0.000  0.000  0.000  0.000  0.000
 
band   2 # energy  -10.43756552 # occ.  2.00000000
 
ion      s     py     pz     px    dxy    dyz    dz2    dxz    dx2    tot
  1  0.075  0.000  0.000  0.358  0.000  0.000  0.000  0.000  0.000  0.434
  2  0.075  0.000  0.000  0.358  0.000  0.000  0.000  0.000  0.000  0.434
tot  0.151  0.000  0.000  0.717  0.000  0.000  0.000  0.000  0.000  0.868
ion      s     py     pz     px    dxy    dyz    dz2    dxz    dx2
  1  0.095  0.000  0.000 -1.141  0.000  0.000  0.000  0.000  0.000
  1 -0.378 -0.000 -0.000 -0.193  0.000  0.000  0.000  0.000  0.000
  2 -0.066 -0.000 -0.000  1.122  0.000  0.000  0.000  0.000  0.000
  2  0.384 -0.000  0.000  0.284  0.000  0.000  0.000  0.000  0.000
 
band   3 # energy   -4.90934680 # occ.  2.00000000
 
ion      s     py     pz     px    dxy    dyz    dz2    dxz    dx2    tot
  1  0.000  0.254  0.012  0.000  0.000  0.000  0.000  0.000  0.000  0.266
  2  0.000  0.254  0.012  0.000  0.000  0.000  0.000  0.000  0.000  0.266
tot  0.000  0.508  0.024  0.000  0.000  0.000  0.000  0.000  0.000  0.533
ion      s     py     pz     px    dxy    dyz    dz2    dxz    dx2
  1 -0.000 -0.911 -0.199 -0.000  0.000  0.000  0.000  0.000  0.000
  1 -0.000 -0.102 -0.022  0.000  0.000  0.000  0.000  0.000  0.000
  2  0.000 -0.916 -0.201 -0.000  0.000  0.000  0.000  0.000  0.000
  2 -0.000 -0.000 -0.000  0.000  0.000  0.000  0.000  0.000  0.000
 
band   4 # energy   -4.90934679 # occ.  2.00000000
 
ion      s     py     pz     px    dxy    dyz    dz2    dxz    dx2    tot
  1  0.000  0.012  0.254  0.000  0.000  0.000  0.000  0.000  0.000  0.266
  2  0.000  0.012  0.254  0.000  0.000  0.000  0.000  0.000  0.000  0.266
tot  0.000  0.024  0.508  0.000  0.000  0.000  0.000  0.000  0.000  0.533
ion      s     py     pz     px    dxy    dyz    dz2    dxz    dx2
  1  0.000  0.053 -0.241 -0.000  0.000  0.000  0.000  0.000  0.000
  1 -0.000  0.193 -0.884 -0.000  0.000  0.000  0.000  0.000  0.000
  2  0.000  0.074 -0.338 -0.000  0.000  0.000  0.000  0.000  0.000
  2  0.000  0.186 -0.852 -0.000  0.000  0.000  0.000  0.000  0.000
 
band   5 # energy    3.30544999 # occ.  0.00000000
 
ion      s     py     pz     px    dxy    dyz    dz2    dxz    dx2    tot
  1  0.034  0.000  0.000  0.008  0.000  0.000  0.000  0.000  0.000  0.042
  2  0.034  0.000  0.000  0.008  0.000  0.000  0.000  0.000  0.000  0.042
tot  0.068  0.000  0.000  0.016  0.000  0.000  0.000  0.000  0.000  0.084
ion      s     py     pz     px    dxy    dyz    dz2    dxz    dx2
  1  0.072 -0.000  0.000 -0.091  0.000  0.000  0.000  0.000  0.000
  1  0.074 -0.000 -0.000  0.104  0.000  0.000  0.000  0.000  0.000
  2  0.036 -0.000 -0.000 -0.133  0.000  0.000  0.000  0.000  0.000
  2  0.096 -0.000  0.000  0.038  0.000  0.000  0.000  0.000  0.000
 
band   6 # energy    6.49336779 # occ.  0.00000000
 
ion      s     py     pz     px    dxy    dyz    dz2    dxz    dx2    tot
  1  0.000  0.268  0.019  0.000  0.000  0.000  0.000  0.000  0.000  0.287
  2  0.000  0.268  0.019  0.000  0.000  0.000  0.000  0.000  0.000  0.287
tot  0.000  0.536  0.038  0.000  0.000  0.000  0.000  0.000  0.000  0.574
ion      s     py     pz     px    dxy    dyz    dz2    dxz    dx2
  1 -0.000  0.734  0.195  0.000  0.000  0.000  0.000  0.000  0.000
  1  0.000  0.002  0.001  0.000  0.000  0.000  0.000  0.000  0.000
  2  0.000 -0.733 -0.195 -0.000  0.000  0.000  0.000  0.000  0.000
  2 -0.000 -0.026 -0.007 -0.000  0.000  0.000  0.000  0.000  0.000
 
band   7 # energy    6.49336780 # occ.  0.00000000
 
ion      s     py     pz     px    dxy    dyz    dz2    dxz    dx2    tot
  1  0.000  0.019  0.268  0.000  0.000  0.000  0.000  0.000  0.000  0.287
  2  0.000  0.019  0.268  0.000  0.000  0.000  0.000  0.000  0.000  0.287
tot  0.000  0.038  0.536  0.000  0.000  0.000  0.000  0.000  0.000  0.574
ion      s     py     pz     px    dxy    dyz    dz2    dxz    dx2
  1  0.000 -0.165  0.619 -0.000  0.000  0.000  0.000  0.000  0.000
  1 -0.000 -0.104  0.393 -0.000  0.000  0.000  0.000  0.000  0.000
  2 -0.000  0.162 -0.606  0.000  0.000  0.000  0.000  0.000  0.000
  2  0.000  0.110 -0.413  0.000  0.000  0.000  0.000  0.000  0.000
 
band   8 # energy    6.97900503 # occ.  0.00000000
 
ion      s     py     pz     px    dxy    dyz    dz2    dxz    dx2    tot
  1  0.169  0.000  0.000  0.122  0.000  0.000  0.000  0.000  0.000  0.291
  2  0.169  0.000  0.000  0.122  0.000  0.000  0.000  0.000  0.000  0.291
tot  0.338  0.000  0.000  0.243  0.000  0.000  0.000  0.000  0.000  0.581
ion      s     py     pz     px    dxy    dyz    dz2    dxz    dx2
  1  0.140 -0.000 -0.000 -0.120  0.000  0.000  0.000  0.000  0.000
  1 -0.058  0.000  0.000  0.468  0.000  0.000  0.000  0.000  0.000
  2 -0.151  0.000  0.000 -0.272  0.000  0.000  0.000  0.000  0.000
  2 -0.007  0.000  0.000 -0.400  0.000  0.000  0.000  0.000  0.000
 

 k-point    3 :    0.40000000 0.00000000 0.00000000     weight = 0.40000000

band   1 # energy  -15.26361417 # occ.  2.00000000
 
ion      s     py     pz     px    dxy    dyz    dz2    dxz    dx2    tot
  1  0.301  0.000  0.000  0.112  0.000  0.000  0.000  0.000  0.000  0.413
  2  0.301  0.000  0.000  0.112  0.000  0.000  0.000  0.000  0.000  0.413
tot  0.602  0.000  0.000  0.223  0.000  0.000  0.000  0.000  0.000  0.826
ion      s     py     pz     px    dxy    dyz    dz2    dxz    dx2
  1  0.879  0.000  0.000  0.652  0.000  0.000  0.000  0.000  0.000
  1 -0.318 -0.000  0.000  0.216  0.000  0.000  0.000  0.000  0.000
  2  0.570 -0.000  0.000  0.008  0.000  0.000  0.000  0.000  0.000
  2 -0.740 -0.000 -0.000  0.687  0.000  0.000  0.000  0.000  0.000
 
band   2 # energy  -12.46917148 # occ.  2.00000000
 
ion      s     py     pz     px    dxy    dyz    dz2    dxz    dx2    tot
  1  0.190  0.000  0.000  0.181  0.000  0.000  0.000  0.000  0.000  0.370
  2  0.190  0.000  0.000  0.181  0.000  0.000  0.000  0.000  0.000  0.370
tot  0.379  0.000  0.000  0.362  0.000  0.000  0.000  0.000  0.000  0.741
ion      s     py     pz     px    dxy    dyz    dz2    dxz    dx2
  1 -0.285 -0.000 -0.000 -0.495  0.000  0.000  0.000  0.000  0.000
  1 -0.625 -0.000  0.000  0.683  0.000  0.000  0.000  0.000  0.000
  2  0.556 -0.000  0.000  0.767  0.000  0.000  0.000  0.000  0.000
  2  0.403 -0.000 -0.000 -0.350  0.000  0.000  0.000  0.000  0.000
 
band   3 # energy   -2.74349334 # occ.  2.00000000
 
ion      s     py     pz     px    dxy    dyz    dz2    dxz    dx2    tot
  1  0.000  0.260  0.013  0.000  0.000  0.000  0.000  0.000  0.000  0.273
  2  0.000  0.260  0.013  0.000  0.000  0.000  0.000  0.000  0.000  0.273
tot  0.000  0.520  0.026  0.000  0.000  0.000  0.000  0.000  0.000  0.545
ion      s     py     pz     px    dxy    dyz    dz2    dxz    dx2
  1 -0.000  0.266  0.059 -0.000  0.000  0.000  0.000  0.000  0.000
  1 -0.000  0.843  0.188 -0.000  0.000  0.000  0.000  0.000  0.000
  2 -0.000  0.627  0.140  0.000  0.000  0.000  0.000  0.000  0.000
  2  0.000  0.624  0.139 -0.000  0.000  0.000  0.000  0.000  0.000
 
band   4 # energy   -2.74349334 # occ.  2.00000000
 
ion      s     py     pz     px    dxy    dyz    dz2    dxz    dx2    tot
  1  0.000  0.013  0.260  0.000  0.000  0.000  0.000  0.000  0.000  0.273
  2  0.000  0.013  0.260  0.000  0.000  0.000  0.000  0.000  0.000  0.273
tot  0.000  0.026  0.520  0.000  0.000  0.000  0.000  0.000  0.000  0.545
ion      s     py     pz     px    dxy    dyz    dz2    dxz    dx2
  1  0.000 -0.143  0.640  0.000  0.000  0.000  0.000  0.000  0.000
  1 -0.000  0.136 -0.610 -0.000  0.000  0.000  0.000  0.000  0.000
  2 -0.000 -0.064  0.285  0.000  0.000  0.000  0.000  0.000  0.000
  2 -0.000  0.187 -0.837 -0.000  0.000  0.000  0.000  0.000  0.000
 
band   5 # energy    1.80945263 # occ.  0.00000000
 
ion      s     py     pz     px    dxy    dyz    dz2    dxz    dx2    tot
  1  0.000  0.237  0.014  0.000  0.000  0.000  0.000  0.000  0.000  0.251
  2  0.000  0.237  0.014  0.000  0.000  0.000  0.000  0.000  0.000  0.251
tot  0.000  0.474  0.027  0.000  0.000  0.000  0.000  0.000  0.000  0.501
ion      s     py     pz     px    dxy    dyz    dz2    dxz    dx2
  1  0.000 -0.720 -0.173 -0.000  0.000  0.000  0.000  0.000  0.000
  1  0.000  0.278  0.067 -0.000  0.000  0.000  0.000  0.000  0.000
  2  0.000  0.604  0.146  0.000  0.000  0.000  0.000  0.000  0.000
  2  0.000 -0.480 -0.115  0.000  0.000  0.000  0.000  0.000  0.000
 
band   6 # energy    1.80945263 # occ.  0.00000000
 
ion      s     py     pz     px    dxy    dyz    dz2    dxz    dx2    tot
  1  0.000  0.014  0.237  0.000  0.000  0.000  0.000  0.000  0.000  0.251
  2  0.000  0.014  0.237  0.000  0.000  0.000  0.000  0.000  0.000  0.251
tot  0.000  0.027  0.474  0.000  0.000  0.000  0.000  0.000  0.000  0.501
ion      s     py     pz     px    dxy    dyz    dz2    dxz    dx2
  1  0.000 -0.130  0.538  0.000  0.000  0.000  0.000  0.000  0.000
  1  0.000  0.133 -0.553  0.000  0.000  0.000  0.000  0.000  0.000
  2  0.000  0.084 -0.349 -0.000  0.000  0.000  0.000  0.000  0.000
  2  0.000 -0.166  0.688  0.000  0.000  0.000  0.000  0.000  0.000
 
band   7 # energy    5.32245509 # occ.  0.00000000
 
ion      s     py     pz     px    dxy    dyz    dz2    dxz    dx2    tot
  1  0.016  0.000  0.000  0.047  0.000  0.000  0.000  0.000  0.000  0.063
  2  0.016  0.000  0.000  0.047  0.000  0.000  0.000  0.000  0.000  0.063
tot  0.032  0.000  0.000  0.093  0.000  0.000  0.000  0.000  0.000  0.125
ion      s     py     pz     px    dxy    dyz    dz2    dxz    dx2
  1 -0.012  0.000  0.000 -0.304  0.000  0.000  0.000  0.000  0.000
  1  0.056  0.000 -0.000  0.044  0.000  0.000  0.000  0.000  0.000
  2 -0.031 -0.000  0.000 -0.185  0.000  0.000  0.000  0.000  0.000
  2  0.048  0.000 -0.000 -0.244  0.000  0.000  0.000  0.000  0.000
 
band   8 # energy    7.98165139 # occ.  0.00000000
 
ion      s     py     pz     px    dxy    dyz    dz2    dxz    dx2    tot
  1  0.007  0.000  0.000  0.123  0.000  0.000  0.000  0.000  0.000  0.129
  2  0.007  0.000  0.000  0.123  0.000  0.000  0.000  0.000  0.000  0.129
tot  0.013  0.000  0.000  0.245  0.000  0.000  0.000  0.000  0.000  0.258
ion      s     py     pz     px    dxy    dyz    dz2    dxz    dx2
  1 -0.002 -0.000 -0.000  0.055  0.000  0.000  0.000  0.000  0.000
  1 -0.009 -0.000  0.000  0.456  0.000  0.000  0.000  0.000  0.000
  2 -0.005  0.000 -0.000 -0.243  0.000  0.000  0.000  0.000  0.000
  2 -0.008 -0.000  0.000 -0.390  0.000  0.000  0.000  0.000  0.000
 
