Screening bandgap                       
           1
     2.650000    0.000000    0.000000
     0.000000    4.000000    0.000000
     0.000000    0.000000    4.000000
   C 
   2
Direct configuration=     1
   0.27358491  0.50000000  0.50000000
   0.72641509  0.50000000  0.50000000
