Screening bandgap                       
   1.00000000000000     
     3.000000    0.000000    0.000000
     0.000000    3.000000    0.000000
     0.000000    0.000000    3.000000
   H 
     2
Direct
  0.500000  0.500000  0.333333
  0.500000  0.500000  0.666667
 
   28   28   28
 0.27869E-01 0.28981E-01 0.32184E-01 0.37187E-01 0.43802E-01 0.52122E-01 0.62458E-01 0.74987E-01 0.89297E-01 0.10415    
 0.11775     0.12845     0.13549     0.13917     0.14027     0.13917     0.13549     0.12845     0.11775     0.10415    
 0.89297E-01 0.74987E-01 0.62458E-01 0.52122E-01 0.43802E-01 0.37187E-01 0.32184E-01 0.28981E-01 0.28981E-01 0.30191E-01
 0.33676E-01 0.39110E-01 0.46243E-01 0.55103E-01 0.65948E-01 0.78930E-01 0.93628E-01 0.10880     0.12266     0.13356    
 0.14077     0.14456     0.14570     0.14456     0.14077     0.13356     0.12266     0.10880     0.93628E-01 0.78930E-01
 0.65948E-01 0.55103E-01 0.46243E-01 0.39110E-01 0.33676E-01 0.30191E-01 0.32184E-01 0.33676E-01 0.37972E-01 0.44641E-01
 0.53268E-01 0.63702E-01 0.76081E-01 0.90500E-01 0.10653     0.12291     0.13784     0.14968     0.15764     0.16195    
 0.16328     0.16195     0.15764     0.14968     0.13784     0.12291     0.10653     0.90500E-01 0.76081E-01 0.63702E-01
 0.53268E-01 0.44641E-01 0.37972E-01 0.33676E-01 0.37187E-01 0.39110E-01 0.44641E-01 0.53192E-01 0.64126E-01 0.77084E-01
 0.92081E-01 0.10918     0.12796     0.14713     0.16479     0.17913     0.18917     0.19486     0.19667     0.19486    
 0.18917     0.17913     0.16479     0.14713     0.12796     0.10918     0.92081E-01 0.77084E-01 0.64126E-01 0.53192E-01
 0.44641E-01 0.39110E-01 0.43802E-01 0.46243E-01 0.53268E-01 0.64126E-01 0.77994E-01 0.94386E-01 0.11328     0.13477    
 0.15846     0.18297     0.20613     0.22567     0.24003     0.24861     0.25143     0.24861     0.24003     0.22567    
 0.20613     0.18297     0.15846     0.13477     0.11328     0.94386E-01 0.77994E-01 0.64126E-01 0.53268E-01 0.46243E-01
 0.52122E-01 0.55103E-01 0.63702E-01 0.77084E-01 0.94386E-01 0.11518     0.13956     0.16775     0.19935     0.23278    
 0.26533     0.29389     0.31580     0.32941     0.33401     0.32941     0.31580     0.29389     0.26533     0.23278    
 0.19935     0.16775     0.13956     0.11518     0.94386E-01 0.77084E-01 0.63702E-01 0.55103E-01 0.62458E-01 0.65948E-01
 0.76081E-01 0.92081E-01 0.11328     0.13956     0.17135     0.20909     0.25234     0.29910     0.34580     0.38797    
 0.42132     0.44257     0.44985     0.44257     0.42132     0.38797     0.34580     0.29910     0.25234     0.20909    
 0.17135     0.13956     0.11328     0.92081E-01 0.76081E-01 0.65948E-01 0.74987E-01 0.78930E-01 0.90500E-01 0.10918    
 0.13477     0.16775     0.20909     0.25953     0.31849     0.38332     0.44917     0.50971     0.55843     0.58995    
 0.60084     0.58995     0.55843     0.50971     0.44917     0.38332     0.31849     0.25953     0.20909     0.16775    
 0.13477     0.10918     0.90500E-01 0.78930E-01 0.89297E-01 0.93628E-01 0.10653     0.12796     0.15846     0.19935    
 0.25234     0.31849     0.39698     0.48419     0.57356     0.65645     0.72375     0.76762     0.78284     0.76762    
 0.72375     0.65645     0.57356     0.48420     0.39698     0.31849     0.25234     0.19935     0.15846     0.12796    
 0.10653     0.93628E-01 0.10415     0.10880     0.12291     0.14713     0.18297     0.23278     0.29910     0.38332    
 0.48419     0.59679     0.71248     0.82004     0.90761     0.96484     0.98474     0.96484     0.90761     0.82004    
 0.71248     0.59679     0.48420     0.38332     0.29910     0.23278     0.18297     0.14713     0.12291     0.10880    
 0.11775     0.12266     0.13784     0.16479     0.20613     0.26533     0.34580     0.44917     0.57356     0.71248    
 0.85501     0.98732      1.0949      1.1652      1.1897      1.1652      1.0949     0.98732     0.85501     0.71248    
 0.57356     0.44917     0.34580     0.26533     0.20613     0.16479     0.13784     0.12266     0.12845     0.13356    
 0.14968     0.17913     0.22567     0.29389     0.38797     0.50971     0.65645     0.82004     0.98732      1.1421    
  1.2676      1.3494      1.3779      1.3494      1.2676      1.1421     0.98732     0.82004     0.65645     0.50971    
 0.38797     0.29389     0.22567     0.17913     0.14968     0.13356     0.13549     0.14077     0.15764     0.18917    
 0.24003     0.31580     0.42132     0.55843     0.72375     0.90761      1.0949      1.2676      1.4072      1.4981    
  1.5296      1.4981      1.4072      1.2676      1.0949     0.90761     0.72375     0.55843     0.42132     0.31580    
 0.24003     0.18917     0.15764     0.14077     0.13917     0.14456     0.16195     0.19486     0.24861     0.32941    
 0.44257     0.58995     0.76762     0.96484      1.1652      1.3494      1.4981      1.5947      1.6282      1.5947    
  1.4981      1.3494      1.1652     0.96484     0.76762     0.58995     0.44257     0.32941     0.24861     0.19486    
 0.16195     0.14456     0.14027     0.14570     0.16328     0.19667     0.25143     0.33401     0.44985     0.60084    
 0.78284     0.98474      1.1897      1.3779      1.5296      1.6282      1.6624      1.6282      1.5296      1.3779    
  1.1897     0.98474     0.78284     0.60084     0.44985     0.33401     0.25143     0.19667     0.16328     0.14570    
 0.13917     0.14456     0.16195     0.19486     0.24861     0.32941     0.44257     0.58995     0.76762     0.96484    
  1.1652      1.3494      1.4981      1.5947      1.6282      1.5947      1.4981      1.3494      1.1652     0.96484    
 0.76762     0.58995     0.44257     0.32941     0.24861     0.19486     0.16195     0.14456     0.13549     0.14077    
 0.15764     0.18917     0.24003     0.31580     0.42132     0.55843     0.72375     0.90761      1.0949      1.2676    
  1.4072      1.4981      1.5296      1.4981      1.4072      1.2676      1.0949     0.90761     0.72375     0.55843    
 0.42132     0.31580     0.24003     0.18917     0.15764     0.14077     0.12845     0.13356     0.14968     0.17913    
 0.22567     0.29389     0.38797     0.50971     0.65645     0.82004     0.98732      1.1421      1.2676      1.3494    
  1.3779      1.3494      1.2676      1.1421     0.98732     0.82004     0.65645     0.50971     0.38797     0.29389    
 0.22567     0.17913     0.14968     0.13356     0.11775     0.12266     0.13784     0.16479     0.20613     0.26533    
 0.34580     0.44917     0.57356     0.71248     0.85501     0.98732      1.0949      1.1652      1.1897      1.1652    
  1.0949     0.98732     0.85501     0.71248     0.57356     0.44917     0.34580     0.26533     0.20613     0.16479    
 0.13784     0.12266     0.10415     0.10880     0.12291     0.14713     0.18297     0.23278     0.29910     0.38332    
 0.48420     0.59679     0.71248     0.82004     0.90761     0.96484     0.98474     0.96484     0.90761     0.82004    
 0.71248     0.59679     0.48419     0.38332     0.29910     0.23278     0.18297     0.14713     0.12291     0.10880    
 0.89297E-01 0.93628E-01 0.10653     0.12796     0.15846     0.19935     0.25234     0.31849     0.39698     0.48420    
 0.57356     0.65645     0.72375     0.76762     0.78284     0.76762     0.72375     0.65645     0.57356     0.48419    
 0.39698     0.31849     0.25234     0.19935     0.15846     0.12796     0.10653     0.93628E-01 0.74987E-01 0.78930E-01
 0.90500E-01 0.10918     0.13477     0.16775     0.20909     0.25953     0.31849     0.38332     0.44917     0.50971    
 0.55843     0.58995     0.60084     0.58995     0.55843     0.50971     0.44917     0.38332     0.31849     0.25953    
 0.20909     0.16775     0.13477     0.10918     0.90500E-01 0.78930E-01 0.62458E-01 0.65948E-01 0.76081E-01 0.92081E-01
 0.11328     0.13956     0.17135     0.20909     0.25234     0.29910     0.34580     0.38797     0.42132     0.44257    
 0.44985     0.44257     0.42132     0.38797     0.34580     0.29910     0.25234     0.20909     0.17135     0.13956    
 0.11328     0.92081E-01 0.76081E-01 0.65948E-01 0.52122E-01 0.55103E-01 0.63702E-01 0.77084E-01 0.94386E-01 0.11518    
 0.13956     0.16775     0.19935     0.23278     0.26533     0.29389     0.31580     0.32941     0.33401     0.32941    
 0.31580     0.29389     0.26533     0.23278     0.19935     0.16775     0.13956     0.11518     0.94386E-01 0.77084E-01
 0.63702E-01 0.55103E-01 0.43802E-01 0.46243E-01 0.53268E-01 0.64126E-01 0.77994E-01 0.94386E-01 0.11328     0.13477    
 0.15846     0.18297     0.20613     0.22567     0.24003     0.24861     0.25143     0.24861     0.24003     0.22567    
 0.20613     0.18297     0.15846     0.13477     0.11328     0.94386E-01 0.77994E-01 0.64126E-01 0.53268E-01 0.46243E-01
 0.37187E-01 0.39110E-01 0.44641E-01 0.53192E-01 0.64126E-01 0.77084E-01 0.92081E-01 0.10918     0.12796     0.14713    
 0.16479     0.17913     0.18917     0.19486     0.19667     0.19486     0.18917     0.17913     0.16479     0.14713    
 0.12796     0.10918     0.92081E-01 0.77084E-01 0.64126E-01 0.53192E-01 0.44641E-01 0.39110E-01 0.32184E-01 0.33676E-01
 0.37972E-01 0.44641E-01 0.53268E-01 0.63702E-01 0.76081E-01 0.90500E-01 0.10653     0.12291     0.13784     0.14968    
 0.15764     0.16195     0.16328     0.16195     0.15764     0.14968     0.13784     0.12291     0.10653     0.90500E-01
 0.76081E-01 0.63702E-01 0.53268E-01 0.44641E-01 0.37972E-01 0.33676E-01 0.28981E-01 0.30191E-01 0.33676E-01 0.39110E-01
 0.46243E-01 0.55103E-01 0.65948E-01 0.78930E-01 0.93628E-01 0.10880     0.12266     0.13356     0.14077     0.14456    
 0.14570     0.14456     0.14077     0.13356     0.12266     0.10880     0.93628E-01 0.78930E-01 0.65948E-01 0.55103E-01
 0.46243E-01 0.39110E-01 0.33676E-01 0.30191E-01 0.27863E-01 0.29087E-01 0.32615E-01 0.38111E-01 0.45288E-01 0.54109E-01
 0.64788E-01 0.77492E-01 0.91868E-01 0.10677     0.12046     0.13131     0.13853     0.14237     0.14352     0.14237    
 0.13853     0.13131     0.12046     0.10677     0.91868E-01 0.77492E-01 0.64788E-01 0.54109E-01 0.45288E-01 0.38111E-01
 0.32615E-01 0.29087E-01 0.29087E-01 0.30408E-01 0.34210E-01 0.40115E-01 0.47772E-01 0.57092E-01 0.68260E-01 0.81430E-01
 0.96250E-01 0.11156     0.12563     0.13681     0.14431     0.14834     0.14956     0.14834     0.14431     0.13681    
 0.12563     0.11156     0.96250E-01 0.81430E-01 0.68260E-01 0.57092E-01 0.47772E-01 0.40115E-01 0.34210E-01 0.30408E-01
 0.32615E-01 0.34210E-01 0.38794E-01 0.45868E-01 0.54926E-01 0.65744E-01 0.78434E-01 0.93132E-01 0.10948     0.12631    
 0.14181     0.15430     0.16289     0.16765     0.16914     0.16765     0.16289     0.15430     0.14181     0.12631    
 0.10948     0.93132E-01 0.78434E-01 0.65744E-01 0.54926E-01 0.45868E-01 0.38794E-01 0.34210E-01 0.38111E-01 0.40115E-01
 0.45868E-01 0.54726E-01 0.66007E-01 0.79341E-01 0.94772E-01 0.11244     0.13197     0.15213     0.17099     0.18662    
 0.19782     0.20433     0.20643     0.20433     0.19782     0.18662     0.17099     0.15213     0.13197     0.11244    
 0.94772E-01 0.79341E-01 0.66007E-01 0.54726E-01 0.45868E-01 0.40115E-01 0.45288E-01 0.47772E-01 0.54926E-01 0.66007E-01
 0.80229E-01 0.97167E-01 0.11687     0.13951     0.16470     0.19107     0.21634     0.23806     0.25435     0.26426    
 0.26756     0.26426     0.25435     0.23806     0.21634     0.19107     0.16470     0.13951     0.11687     0.97167E-01
 0.80229E-01 0.66007E-01 0.54926E-01 0.47772E-01 0.54109E-01 0.57092E-01 0.65744E-01 0.79341E-01 0.97167E-01 0.11893    
 0.14481     0.17507     0.20927     0.24575     0.28162     0.31347     0.33824     0.35381     0.35911     0.35381    
 0.33824     0.31347     0.28162     0.24575     0.20927     0.17507     0.14481     0.11893     0.97167E-01 0.79341E-01
 0.65744E-01 0.57092E-01 0.64788E-01 0.68260E-01 0.78434E-01 0.94772E-01 0.11687     0.14481     0.17910     0.22015    
 0.26738     0.31861     0.37000     0.41670     0.45391     0.47780     0.48602     0.47780     0.45391     0.41670    
 0.37000     0.31861     0.26738     0.22015     0.17910     0.14481     0.11687     0.94772E-01 0.78434E-01 0.68260E-01
 0.77492E-01 0.81430E-01 0.93132E-01 0.11244     0.13951     0.17507     0.22015     0.27534     0.33981     0.41060    
 0.48250     0.54878     0.60237     0.63722     0.64930     0.63722     0.60237     0.54878     0.48250     0.41060    
 0.33981     0.27534     0.22015     0.17507     0.13951     0.11244     0.93132E-01 0.81430E-01 0.91868E-01 0.96250E-01
 0.10948     0.13197     0.16470     0.20927     0.26738     0.33981     0.42533     0.51989     0.61658     0.70640    
 0.77964     0.82761     0.84431     0.82761     0.77964     0.70640     0.61658     0.51989     0.42533     0.33981    
 0.26738     0.20927     0.16470     0.13197     0.10948     0.96250E-01 0.10677     0.11156     0.12631     0.15213    
 0.19107     0.24575     0.31861     0.41060     0.51989     0.64112     0.76542     0.88131     0.97621      1.0386    
  1.0604      1.0386     0.97621     0.88131     0.76542     0.64112     0.51989     0.41060     0.31861     0.24575    
 0.19107     0.15213     0.12631     0.11156     0.12046     0.12563     0.14181     0.17099     0.21634     0.28162    
 0.37000     0.48250     0.61658     0.76542     0.91811      1.0606      1.1776      1.2547      1.2817      1.2547    
  1.1776      1.0606     0.91811     0.76542     0.61658     0.48250     0.37000     0.28162     0.21634     0.17099    
 0.14181     0.12563     0.13131     0.13681     0.15430     0.18662     0.23806     0.31347     0.41670     0.54878    
 0.70640     0.88131      1.0606      1.2281      1.3657      1.4565      1.4882      1.4565      1.3657      1.2281    
  1.0606     0.88131     0.70640     0.54878     0.41670     0.31347     0.23806     0.18662     0.15430     0.13681    
 0.13853     0.14431     0.16289     0.19782     0.25435     0.33824     0.45391     0.60237     0.77964     0.97621    
  1.1776      1.3657      1.5202      1.6223      1.6581      1.6223      1.5202      1.3657      1.1776     0.97621    
 0.77964     0.60237     0.45391     0.33824     0.25435     0.19782     0.16289     0.14431     0.14237     0.14834    
 0.16765     0.20433     0.26426     0.35381     0.47780     0.63722     0.82761      1.0386      1.2547      1.4565    
  1.6223      1.7320      1.7704      1.7320      1.6223      1.4565      1.2547      1.0386     0.82761     0.63722    
 0.47780     0.35381     0.26426     0.20433     0.16765     0.14834     0.14352     0.14956     0.16914     0.20643    
 0.26756     0.35911     0.48602     0.64930     0.84431      1.0604      1.2817      1.4882      1.6581      1.7704    
  1.8097      1.7704      1.6581      1.4882      1.2817      1.0604     0.84431     0.64930     0.48602     0.35911    
 0.26756     0.20643     0.16914     0.14956     0.14237     0.14834     0.16765     0.20433     0.26426     0.35381    
 0.47780     0.63722     0.82761      1.0386      1.2547      1.4565      1.6223      1.7320      1.7704      1.7320    
  1.6223      1.4565      1.2547      1.0386     0.82761     0.63722     0.47780     0.35381     0.26426     0.20433    
 0.16765     0.14834     0.13853     0.14431     0.16289     0.19782     0.25435     0.33824     0.45391     0.60237    
 0.77964     0.97621      1.1776      1.3657      1.5202      1.6223      1.6581      1.6223      1.5202      1.3657    
  1.1776     0.97621     0.77964     0.60237     0.45391     0.33824     0.25435     0.19782     0.16289     0.14431    
 0.13131     0.13681     0.15430     0.18662     0.23806     0.31347     0.41670     0.54878     0.70640     0.88131    
  1.0606      1.2281      1.3657      1.4565      1.4882      1.4565      1.3657      1.2281      1.0606     0.88131    
 0.70640     0.54878     0.41670     0.31347     0.23806     0.18662     0.15430     0.13681     0.12046     0.12563    
 0.14181     0.17099     0.21634     0.28162     0.37000     0.48250     0.61658     0.76542     0.91811      1.0606    
  1.1776      1.2547      1.2817      1.2547      1.1776      1.0606     0.91811     0.76542     0.61658     0.48250    
 0.37000     0.28162     0.21634     0.17099     0.14181     0.12563     0.10677     0.11156     0.12631     0.15213    
 0.19107     0.24575     0.31861     0.41060     0.51989     0.64112     0.76542     0.88131     0.97621      1.0386    
  1.0604      1.0386     0.97621     0.88131     0.76542     0.64112     0.51989     0.41060     0.31861     0.24575    
 0.19107     0.15213     0.12631     0.11156     0.91868E-01 0.96250E-01 0.10948     0.13197     0.16470     0.20927    
 0.26738     0.33981     0.42533     0.51989     0.61658     0.70640     0.77964     0.82761     0.84431     0.82761    
 0.77964     0.70640     0.61658     0.51989     0.42533     0.33981     0.26738     0.20927     0.16470     0.13197    
 0.10948     0.96250E-01 0.77492E-01 0.81430E-01 0.93132E-01 0.11244     0.13951     0.17507     0.22015     0.27534    
 0.33981     0.41060     0.48250     0.54878     0.60237     0.63722     0.64930     0.63722     0.60237     0.54878    
 0.48250     0.41060     0.33981     0.27534     0.22015     0.17507     0.13951     0.11244     0.93132E-01 0.81430E-01
 0.64788E-01 0.68260E-01 0.78434E-01 0.94772E-01 0.11687     0.14481     0.17910     0.22015     0.26738     0.31861    
 0.37000     0.41670     0.45391     0.47780     0.48602     0.47780     0.45391     0.41670     0.37000     0.31861    
 0.26738     0.22015     0.17910     0.14481     0.11687     0.94772E-01 0.78434E-01 0.68260E-01 0.54109E-01 0.57092E-01
 0.65744E-01 0.79341E-01 0.97167E-01 0.11893     0.14481     0.17507     0.20927     0.24575     0.28162     0.31347    
 0.33824     0.35381     0.35911     0.35381     0.33824     0.31347     0.28162     0.24575     0.20927     0.17507    
 0.14481     0.11893     0.97167E-01 0.79341E-01 0.65744E-01 0.57092E-01 0.45288E-01 0.47772E-01 0.54926E-01 0.66007E-01
 0.80229E-01 0.97167E-01 0.11687     0.13951     0.16470     0.19107     0.21634     0.23806     0.25435     0.26426    
 0.26756     0.26426     0.25435     0.23806     0.21634     0.19107     0.16470     0.13951     0.11687     0.97167E-01
 0.80229E-01 0.66007E-01 0.54926E-01 0.47772E-01 0.38111E-01 0.40115E-01 0.45868E-01 0.54726E-01 0.66007E-01 0.79341E-01
 0.94772E-01 0.11244     0.13197     0.15213     0.17099     0.18662     0.19782     0.20433     0.20643     0.20433    
 0.19782     0.18662     0.17099     0.15213     0.13197     0.11244     0.94772E-01 0.79341E-01 0.66007E-01 0.54726E-01
 0.45868E-01 0.40115E-01 0.32615E-01 0.34210E-01 0.38794E-01 0.45868E-01 0.54926E-01 0.65744E-01 0.78434E-01 0.93132E-01
 0.10948     0.12631     0.14181     0.15430     0.16289     0.16765     0.16914     0.16765     0.16289     0.15430    
 0.14181     0.12631     0.10948     0.93132E-01 0.78434E-01 0.65744E-01 0.54926E-01 0.45868E-01 0.38794E-01 0.34210E-01
 0.29087E-01 0.30408E-01 0.34210E-01 0.40115E-01 0.47772E-01 0.57092E-01 0.68260E-01 0.81430E-01 0.96250E-01 0.11156    
 0.12563     0.13681     0.14431     0.14834     0.14956     0.14834     0.14431     0.13681     0.12563     0.11156    
 0.96250E-01 0.81430E-01 0.68260E-01 0.57092E-01 0.47772E-01 0.40115E-01 0.34210E-01 0.30408E-01 0.28282E-01 0.29812E-01
 0.34217E-01 0.41017E-01 0.49652E-01 0.59768E-01 0.71368E-01 0.84608E-01 0.99300E-01 0.11451     0.12864     0.14011    
 0.14801     0.15239     0.15375     0.15239     0.14801     0.14011     0.12864     0.11451     0.99300E-01 0.84608E-01
 0.71368E-01 0.59768E-01 0.49652E-01 0.41017E-01 0.34217E-01 0.29812E-01 0.29812E-01 0.31433E-01 0.36086E-01 0.43232E-01
 0.52259E-01 0.62795E-01 0.74860E-01 0.88636E-01 0.10395     0.11984     0.13468     0.14683     0.15531     0.16007    
 0.16158     0.16007     0.15531     0.14683     0.13468     0.11984     0.10395     0.88636E-01 0.74860E-01 0.62795E-01
 0.52259E-01 0.43232E-01 0.36086E-01 0.31433E-01 0.34217E-01 0.36086E-01 0.41426E-01 0.49569E-01 0.59792E-01 0.71696E-01
 0.85346E-01 0.10098     0.11844     0.13671     0.15403     0.16855     0.17902     0.18514     0.18712     0.18514    
 0.17902     0.16855     0.15403     0.13671     0.11844     0.10098     0.85346E-01 0.71696E-01 0.59792E-01 0.49569E-01
 0.41426E-01 0.36086E-01 0.41017E-01 0.43232E-01 0.49569E-01 0.59273E-01 0.71567E-01 0.86072E-01 0.10292     0.12241    
 0.14434     0.16757     0.19005     0.20949     0.22412     0.23303     0.23599     0.23303     0.22412     0.20949    
 0.19005     0.16757     0.14434     0.12241     0.10292     0.86072E-01 0.71567E-01 0.59273E-01 0.49569E-01 0.43232E-01
 0.49652E-01 0.52259E-01 0.59792E-01 0.71567E-01 0.86924E-01 0.10562     0.12791     0.15409     0.18387     0.21580    
 0.24732     0.27537     0.29721     0.31095     0.31562     0.31095     0.29721     0.27537     0.24732     0.21580    
 0.18387     0.15409     0.12791     0.10562     0.86924E-01 0.71567E-01 0.59792E-01 0.52259E-01 0.59768E-01 0.62795E-01
 0.71696E-01 0.86072E-01 0.10562     0.13043     0.16092     0.19741     0.23934     0.28474     0.33020     0.37147    
 0.40436     0.42550     0.43278     0.42550     0.40436     0.37147     0.33020     0.28474     0.23934     0.19741    
 0.16092     0.13043     0.10562     0.86072E-01 0.71696E-01 0.62795E-01 0.71368E-01 0.74860E-01 0.85346E-01 0.10292    
 0.12791     0.16092     0.20270     0.25349     0.31233     0.37643     0.44121     0.50078     0.54897     0.58036    
 0.59126     0.58036     0.54897     0.50078     0.44121     0.37643     0.31233     0.25349     0.20270     0.16092    
 0.12791     0.10292     0.85346E-01 0.74860E-01 0.84608E-01 0.88636E-01 0.10098     0.12241     0.15409     0.19741    
 0.25349     0.32248     0.40280     0.49063     0.57990     0.66277     0.73057     0.77520     0.79079     0.77520    
 0.73057     0.66277     0.57990     0.49063     0.40280     0.32248     0.25349     0.19741     0.15409     0.12241    
 0.10098     0.88636E-01 0.99300E-01 0.10395     0.11844     0.14434     0.18387     0.23934     0.31233     0.40280    
 0.50843     0.62423     0.74257     0.85340     0.94506      1.0060      1.0274      1.0060     0.94506     0.85340    
 0.74257     0.62423     0.50843     0.40280     0.31233     0.23934     0.18387     0.14434     0.11844     0.10395    
 0.11451     0.11984     0.13671     0.16757     0.21580     0.28474     0.37643     0.49063     0.62423     0.77117    
 0.92235      1.0654      1.1850      1.2652      1.2935      1.2652      1.1850      1.0654     0.92235     0.77117    
 0.62423     0.49063     0.37643     0.28474     0.21580     0.16757     0.13671     0.11984     0.12864     0.13468    
 0.15403     0.19005     0.24732     0.33020     0.44121     0.57990     0.74257     0.92235      1.1089      1.2873    
  1.4383      1.5404      1.5767      1.5404      1.4383      1.2873      1.1089     0.92235     0.74257     0.57990    
 0.44121     0.33020     0.24732     0.19005     0.15403     0.13468     0.14011     0.14683     0.16855     0.20949    
 0.27537     0.37147     0.50078     0.66277     0.85340      1.0654      1.2873      1.5020      1.6856      1.8108    
  1.8555      1.8108      1.6856      1.5020      1.2873      1.0654     0.85340     0.66277     0.50078     0.37147    
 0.27537     0.20949     0.16855     0.14683     0.14801     0.15531     0.17902     0.22412     0.29721     0.40436    
 0.54897     0.73057     0.94506      1.1850      1.4383      1.6856      1.8988      2.0453      2.0976      2.0453    
  1.8988      1.6856      1.4383      1.1850     0.94506     0.73057     0.54897     0.40436     0.29721     0.22412    
 0.17902     0.15531     0.15239     0.16007     0.18514     0.23303     0.31095     0.42550     0.58036     0.77520    
  1.0060      1.2652      1.5404      1.8108      2.0453      2.2069      2.2649      2.2069      2.0453      1.8108    
  1.5404      1.2652      1.0060     0.77520     0.58036     0.42550     0.31095     0.23303     0.18514     0.16007    
 0.15375     0.16158     0.18712     0.23599     0.31562     0.43278     0.59126     0.79079      1.0274      1.2935    
  1.5767      1.8555      2.0976      2.2649      2.3249      2.2649      2.0976      1.8555      1.5767      1.2935    
  1.0274     0.79079     0.59126     0.43278     0.31562     0.23599     0.18712     0.16158     0.15239     0.16007    
 0.18514     0.23303     0.31095     0.42550     0.58036     0.77520      1.0060      1.2652      1.5404      1.8108    
  2.0453      2.2069      2.2649      2.2069      2.0453      1.8108      1.5404      1.2652      1.0060     0.77520    
 0.58036     0.42550     0.31095     0.23303     0.18514     0.16007     0.14801     0.15531     0.17902     0.22412    
 0.29721     0.40436     0.54897     0.73057     0.94506      1.1850      1.4383      1.6856      1.8988      2.0453    
  2.0976      2.0453      1.8988      1.6856      1.4383      1.1850     0.94506     0.73057     0.54897     0.40436    
 0.29721     0.22412     0.17902     0.15531     0.14011     0.14683     0.16855     0.20949     0.27537     0.37147    
 0.50078     0.66277     0.85340      1.0654      1.2873      1.5020      1.6856      1.8108      1.8555      1.8108    
  1.6856      1.5020      1.2873      1.0654     0.85340     0.66277     0.50078     0.37147     0.27537     0.20949    
 0.16855     0.14683     0.12864     0.13468     0.15403     0.19005     0.24732     0.33020     0.44121     0.57990    
 0.74257     0.92235      1.1089      1.2873      1.4383      1.5404      1.5767      1.5404      1.4383      1.2873    
  1.1089     0.92235     0.74257     0.57990     0.44121     0.33020     0.24732     0.19005     0.15403     0.13468    
 0.11451     0.11984     0.13671     0.16757     0.21580     0.28474     0.37643     0.49063     0.62423     0.77117    
 0.92235      1.0654      1.1850      1.2652      1.2935      1.2652      1.1850      1.0654     0.92235     0.77117    
 0.62423     0.49063     0.37643     0.28474     0.21580     0.16757     0.13671     0.11984     0.99300E-01 0.10395    
 0.11844     0.14434     0.18387     0.23934     0.31233     0.40280     0.50843     0.62423     0.74257     0.85340    
 0.94506      1.0060      1.0274      1.0060     0.94506     0.85340     0.74257     0.62423     0.50843     0.40280    
 0.31233     0.23934     0.18387     0.14434     0.11844     0.10395     0.84608E-01 0.88636E-01 0.10098     0.12241    
 0.15409     0.19741     0.25349     0.32248     0.40280     0.49063     0.57990     0.66277     0.73057     0.77520    
 0.79079     0.77520     0.73057     0.66277     0.57990     0.49063     0.40280     0.32248     0.25349     0.19741    
 0.15409     0.12241     0.10098     0.88636E-01 0.71368E-01 0.74860E-01 0.85346E-01 0.10292     0.12791     0.16092    
 0.20270     0.25349     0.31233     0.37643     0.44121     0.50078     0.54897     0.58036     0.59126     0.58036    
 0.54897     0.50078     0.44121     0.37643     0.31233     0.25349     0.20270     0.16092     0.12791     0.10292    
 0.85346E-01 0.74860E-01 0.59768E-01 0.62795E-01 0.71696E-01 0.86072E-01 0.10562     0.13043     0.16092     0.19741    
 0.23934     0.28474     0.33020     0.37147     0.40436     0.42550     0.43278     0.42550     0.40436     0.37147    
 0.33020     0.28474     0.23934     0.19741     0.16092     0.13043     0.10562     0.86072E-01 0.71696E-01 0.62795E-01
 0.49652E-01 0.52259E-01 0.59792E-01 0.71567E-01 0.86924E-01 0.10562     0.12791     0.15409     0.18387     0.21580    
 0.24732     0.27537     0.29721     0.31095     0.31562     0.31095     0.29721     0.27537     0.24732     0.21580    
 0.18387     0.15409     0.12791     0.10562     0.86924E-01 0.71567E-01 0.59792E-01 0.52259E-01 0.41017E-01 0.43232E-01
 0.49569E-01 0.59273E-01 0.71567E-01 0.86072E-01 0.10292     0.12241     0.14434     0.16757     0.19005     0.20949    
 0.22412     0.23303     0.23599     0.23303     0.22412     0.20949     0.19005     0.16757     0.14434     0.12241    
 0.10292     0.86072E-01 0.71567E-01 0.59273E-01 0.49569E-01 0.43232E-01 0.34217E-01 0.36086E-01 0.41426E-01 0.49569E-01
 0.59792E-01 0.71696E-01 0.85346E-01 0.10098     0.11844     0.13671     0.15403     0.16855     0.17902     0.18514    
 0.18712     0.18514     0.17902     0.16855     0.15403     0.13671     0.11844     0.10098     0.85346E-01 0.71696E-01
 0.59792E-01 0.49569E-01 0.41426E-01 0.36086E-01 0.29812E-01 0.31433E-01 0.36086E-01 0.43232E-01 0.52259E-01 0.62795E-01
 0.74860E-01 0.88636E-01 0.10395     0.11984     0.13468     0.14683     0.15531     0.16007     0.16158     0.16007    
 0.15531     0.14683     0.13468     0.11984     0.10395     0.88636E-01 0.74860E-01 0.62795E-01 0.52259E-01 0.43232E-01
 0.36086E-01 0.31433E-01 0.30132E-01 0.32079E-01 0.37653E-01 0.46134E-01 0.56608E-01 0.68381E-01 0.81273E-01 0.95481E-01
 0.11103     0.12720     0.14256     0.15546     0.16479     0.17024     0.17200     0.17024     0.16479     0.15546    
 0.14256     0.12720     0.11103     0.95481E-01 0.81273E-01 0.68381E-01 0.56608E-01 0.46134E-01 0.37653E-01 0.32079E-01
 0.32079E-01 0.34101E-01 0.39871E-01 0.48617E-01 0.59403E-01 0.71564E-01 0.84984E-01 0.99913E-01 0.11639     0.13367    
 0.15023     0.16430     0.17463     0.18074     0.18274     0.18074     0.17463     0.16430     0.15023     0.13367    
 0.11639     0.99913E-01 0.84984E-01 0.71564E-01 0.59403E-01 0.48617E-01 0.39871E-01 0.34101E-01 0.37653E-01 0.39871E-01
 0.46182E-01 0.55726E-01 0.67555E-01 0.81117E-01 0.96458E-01 0.11395     0.13363     0.15466     0.17524     0.19324    
 0.20689     0.21524     0.21803     0.21524     0.20689     0.19324     0.17524     0.15466     0.13363     0.11395    
 0.96458E-01 0.81117E-01 0.67555E-01 0.55726E-01 0.46182E-01 0.39871E-01 0.46134E-01 0.48617E-01 0.55726E-01 0.66638E-01
 0.80546E-01 0.97124E-01 0.11664     0.13955     0.16583     0.19436     0.22286     0.24847     0.26854     0.28120    