Screening bandgap                       
   1.00000000000000     
     3.000000    0.000000    0.000000
     0.000000    3.000000    0.000000
     0.000000    0.000000    3.000000
   H 
     2
Direct
  0.500000  0.500000  0.333333
  0.500000  0.500000  0.666667
 
   28   28   28
 0.27868681002E-01 0.28981219444E-01 0.32183945230E-01 0.37187426192E-01 0.43801997092E-01
 0.52122167428E-01 0.62458432708E-01 0.74987400773E-01 0.89296981898E-01 0.10415131921E+00
 0.11775111807E+00 0.12845171858E+00 0.13549333738E+00 0.13917206229E+00 0.14026632176E+00
 0.13917206171E+00 0.13549333625E+00 0.12845171697E+00 0.11775111613E+00 0.10415131710E+00
 0.89296979764E-01 0.74987398683E-01 0.62458430688E-01 0.52122165507E-01 0.43801995334E-01
 0.37187424702E-01 0.32183944135E-01 0.28981218861E-01 0.28981218840E-01 0.30191271619E-01
 0.33675764193E-01 0.39109628303E-01 0.46243070032E-01 0.55102873917E-01 0.65948288991E-01
 0.78930375460E-01 0.93627633224E-01 0.10880109329E+00 0.12265623802E+00 0.13356208088E+00
 0.14076855097E+00 0.14456240390E+00 0.14569914508E+00 0.14456240408E+00 0.14076855129E+00
 0.13356208132E+00 0.12265623858E+00 0.10880109398E+00 0.93627634011E-01 0.78930376254E-01
 0.65948289671E-01 0.55102874383E-01 0.46243070247E-01 0.39109628307E-01 0.33675764089E-01
 0.30191271526E-01 0.32183944003E-01 0.33675763640E-01 0.37971582763E-01 0.44640795468E-01
 0.53267543051E-01 0.63702437689E-01 0.76080653047E-01 0.90500392373E-01 0.10652613786E+00
 0.12290805398E+00 0.13783918862E+00 0.14967765795E+00 0.15764363742E+00 0.16195347959E+00
 0.16327573217E+00 0.16195348053E+00 0.15764363920E+00 0.14967766043E+00 0.13783919163E+00
 0.12290805736E+00 0.10652614141E+00 0.90500395849E-01 0.76080656220E-01 0.63702440364E-01
 0.53267545111E-01 0.44640796894E-01 0.37971583619E-01 0.33675764030E-01 0.37187424612E-01
 0.39109627529E-01 0.44640795295E-01 0.53191855379E-01 0.64125528662E-01 0.77084458630E-01
 0.92080806066E-01 0.10918309781E+00 0.12796015699E+00 0.14713066621E+00 0.16478972840E+00
 0.17913346970E+00 0.18916558143E+00 0.19485678344E+00 0.19666729973E+00 0.19485678510E+00
 0.18916558460E+00 0.17913347410E+00 0.16478973368E+00 0.14713067201E+00 0.12796016294E+00
 0.10918310358E+00 0.92080811341E-01 0.77084463174E-01 0.64125532315E-01 0.53191858071E-01
 0.44640797035E-01 0.39109628374E-01 0.43801995809E-01 0.46243069718E-01 0.53267543368E-01
 0.64125529104E-01 0.77994472474E-01 0.94386438657E-01 0.11327809753E+00 0.13477220726E+00
 0.15845931983E+00 0.18296839260E+00 0.20612507609E+00 0.22567051159E+00 0.24003285641E+00
 0.24860914416E+00 0.25143385988E+00 0.24860914650E+00 0.24003286086E+00 0.22567051773E+00
 0.20612508338E+00 0.18296840047E+00 0.15845932776E+00 0.13477221482E+00 0.11327810440E+00
 0.94386444616E-01 0.77994477359E-01 0.64125532815E-01 0.53267545852E-01 0.46243070960E-01
 0.52122167419E-01 0.55102875027E-01 0.63702439357E-01 0.77084460218E-01 0.94386439625E-01
 0.11517650925E+00 0.13955689387E+00 0.16774751520E+00 0.19934825145E+00 0.23277752879E+00
 0.26533218595E+00 0.29388921338E+00 0.31579997461E+00 0.32941339673E+00 0.33400846118E+00
 0.32941339970E+00 0.31579998022E+00 0.29388922107E+00 0.26533219498E+00 0.23277753837E+00
 0.19934826091E+00 0.16774752405E+00 0.13955690182E+00 0.11517651612E+00 0.94386445318E-01
 0.77084464632E-01 0.63702442384E-01 0.55102876569E-01 0.62458435030E-01 0.65948292533E-01
 0.76080656934E-01 0.92080809469E-01 0.11327809991E+00 0.13955689505E+00 0.17135234181E+00
 0.20909217428E+00 0.25233548898E+00 0.29909638060E+00 0.34580031359E+00 0.38797443081E+00
 0.42131663738E+00 0.44256990463E+00 0.44985226384E+00 0.44256990813E+00 0.42131664400E+00
 0.38797443982E+00 0.34580032404E+00 0.29909639151E+00 0.25233549953E+00 0.20909218392E+00
 0.17135235032E+00 0.13955690235E+00 0.11327810597E+00 0.92080814237E-01 0.76080660264E-01
 0.65948294256E-01 0.74987406240E-01 0.78930382189E-01 0.90500399123E-01 0.10918310354E+00
 0.13477221142E+00 0.16774751777E+00 0.20909217552E+00 0.25952792188E+00 0.31848786197E+00
 0.38332028469E+00 0.44917154424E+00 0.50971155480E+00 0.55843280318E+00 0.58995239431E+00
 0.60084492272E+00 0.58995239821E+00 0.55843281054E+00 0.50971156478E+00 0.44917155569E+00
 0.38332029646E+00 0.31848787309E+00 0.25952793181E+00 0.20909218407E+00 0.16774752500E+00
 0.13477221742E+00 0.10918310831E+00 0.90500402502E-01 0.78930383958E-01 0.89296990806E-01
 0.93627643385E-01 0.10652614769E+00 0.12796016524E+00 0.15845932598E+00 0.19934825565E+00
 0.25233549172E+00 0.31848786350E+00 0.39698406205E+00 0.48419499282E+00 0.57356194163E+00
 0.65645270779E+00 0.72375190992E+00 0.76761595819E+00 0.78284042585E+00 0.76761596225E+00
 0.72375191759E+00 0.65645271816E+00 0.57356195344E+00 0.48419500477E+00 0.39698407310E+00
 0.31848787308E+00 0.25233549976E+00 0.19934826233E+00 0.15845933150E+00 0.12796016966E+00
 0.10652615086E+00 0.93627645064E-01 0.10415133122E+00 0.10880110652E+00 0.12290806655E+00
 0.14713067676E+00 0.18296840065E+00 0.23277753468E+00 0.29909638508E+00 0.38332028819E+00
 0.48419499501E+00 0.59679033418E+00 0.71247737827E+00 0.82004050530E+00 0.90761147651E+00
 0.96484062985E+00 0.98473741700E+00 0.96484063377E+00 0.90761148392E+00 0.82004051530E+00
 0.71247738959E+00 0.59679034545E+00 0.48419500516E+00 0.38332029671E+00 0.29909639198E+00
 0.23277754027E+00 0.18296840525E+00 0.14713068048E+00 0.12290806926E+00 0.10880110797E+00
 0.11775113229E+00 0.12265625340E+00 0.13783920311E+00 0.16478974057E+00 0.20612508554E+00
 0.26533219322E+00 0.34580031969E+00 0.44917154982E+00 0.57356194639E+00 0.71247738112E+00
 0.85500921362E+00 0.98731856091E+00 0.10949340156E+01 0.11652475484E+01 0.11896957557E+01
 0.11652475518E+01 0.10949340221E+01 0.98731856966E+00 0.85500922344E+00 0.71247739069E+00
 0.57356195470E+00 0.44917155644E+00 0.34580032475E+00 0.26533219716E+00 0.20612508876E+00
 0.16478974324E+00 0.13783920511E+00 0.12265625450E+00 0.12845173382E+00 0.13356209726E+00
 0.14967767328E+00 0.17913348255E+00 0.22567052164E+00 0.29388922136E+00 0.38797443798E+00
 0.50971156203E+00 0.65645271479E+00 0.82004051076E+00 0.98731856364E+00 0.11420523721E+01
 0.12675646120E+01 0.13494381847E+01 0.13778860818E+01 0.13494381874E+01 0.12675646170E+01
 0.11420523787E+01 0.98731857100E+00 0.82004051764E+00 0.65645272031E+00 0.50971156593E+00
 0.38797444053E+00 0.29388922310E+00 0.22567052305E+00 0.17913348384E+00 0.14967767437E+00
 0.13356209790E+00 0.13549335258E+00 0.14076856730E+00 0.15764365267E+00 0.18916559416E+00
 0.24003286636E+00 0.31579998265E+00 0.42131664498E+00 0.55843281135E+00 0.72375191836E+00
 0.90761148370E+00 0.10949340201E+01 0.12675646137E+01 0.14071755190E+01 0.14980709072E+01
 0.15296253250E+01 0.14980709087E+01 0.14071755219E+01 0.12675646176E+01 0.10949340242E+01
 0.90761148703E+00 0.72375192029E+00 0.55843281182E+00 0.42131664444E+00 0.31579998174E+00
 0.24003286561E+00 0.18916559381E+00 0.15764365265E+00 0.14076856738E+00 0.13917207683E+00
 0.14456241960E+00 0.16195349426E+00 0.19485679570E+00 0.24860915380E+00 0.32941340471E+00
 0.44256991251E+00 0.58995240317E+00 0.76761596766E+00 0.96484063819E+00 0.11652475539E+01
 0.13494381871E+01 0.14980709078E+01 0.15947002869E+01 0.16282222143E+01 0.15947002872E+01
 0.14980709084E+01 0.13494381878E+01 0.11652475541E+01 0.96484063736E+00 0.76761596543E+00
 0.58995239974E+00 0.44256990849E+00 0.32941340085E+00 0.24860915067E+00 0.19485679354E+00
 0.16195349302E+00 0.14456241906E+00 0.14026633559E+00 0.14569916011E+00 0.16327574635E+00
 0.19666731176E+00 0.25143386959E+00 0.33400846960E+00 0.44985227255E+00 0.60084493278E+00
 0.78284043678E+00 0.98473742686E+00 0.11896957626E+01 0.13778860854E+01 0.15296253265E+01
 0.16282222150E+01 0.16624180382E+01 0.16282222140E+01 0.15296253245E+01 0.13778860825E+01
 0.11896957586E+01 0.98473742153E+00 0.78284043011E+00 0.60084492523E+00 0.44985226491E+00
 0.33400846268E+00 0.25143386400E+00 0.19666730772E+00 0.16327574383E+00 0.14569915892E+00
 0.13917207515E+00 0.14456241877E+00 0.16195349462E+00 0.19485679744E+00 0.24860915699E+00
 0.32941340934E+00 0.44256991850E+00 0.58995241028E+00 0.76761597544E+00 0.96484064604E+00
 0.11652475611E+01 0.13494381933E+01 0.14980709124E+01 0.15947002900E+01 0.16282222159E+01
 0.15947002876E+01 0.14980709079E+01 0.13494381868E+01 0.11652475529E+01 0.96484063618E+00
 0.76761596436E+00 0.58995239871E+00 0.44256990737E+00 0.32941339951E+00 0.24860914903E+00
 0.19485679159E+00 0.16195349086E+00 0.14456241695E+00 0.13549334968E+00 0.14076856602E+00
 0.15764365362E+00 0.18916559768E+00 0.24003287258E+00 0.31579999155E+00 0.42131665639E+00
 0.55843282483E+00 0.72375193315E+00 0.90761149876E+00 0.10949340343E+01 0.12675646260E+01
 0.14071755287E+01 0.14980709141E+01 0.15296253292E+01 0.14980709105E+01 0.14071755217E+01
 0.12675646161E+01 0.10949340221E+01 0.90761148477E+00 0.72375191812E+00 0.55843280971E+00
 0.42131664220E+00 0.31579997917E+00 0.24003286254E+00 0.18916559022E+00 0.15764364874E+00
 0.14076856362E+00 0.12845173049E+00 0.13356209618E+00 0.14967767522E+00 0.17913348793E+00
 0.22567053057E+00 0.29388923379E+00 0.38797445367E+00 0.50971158043E+00 0.65645273500E+00
 0.82004053154E+00 0.98731858360E+00 0.11420523900E+01 0.12675646269E+01 0.13494381961E+01
 0.13778860895E+01 0.13494381914E+01 0.12675646179E+01 0.11420523774E+01 0.98731856822E+00
 0.82004051428E+00 0.65645271689E+00 0.50971156260E+00 0.38797443716E+00 0.29388921945E+00
 0.22567051890E+00 0.17913347916E+00 0.14967766941E+00 0.13356209330E+00 0.11775112944E+00
 0.12265625323E+00 0.13783920641E+00 0.16478974776E+00 0.20612509668E+00 0.26533220817E+00
 0.34580033813E+00 0.44917157118E+00 0.57356196975E+00 0.71247740527E+00 0.85500923721E+00
 0.98731858265E+00 0.10949340344E+01 0.11652475634E+01 0.11896957664E+01 0.11652475580E+01
 0.10949340241E+01 0.98731856830E+00 0.85500921985E+00 0.71247738602E+00 0.57356194982E+00
 0.44917155176E+00 0.34580032025E+00 0.26533219262E+00 0.20612508394E+00 0.16478973809E+00
 0.13783919993E+00 0.12265624999E+00 0.10415132950E+00 0.10880110773E+00 0.12290807138E+00
 0.14713068552E+00 0.18296841332E+00 0.23277755101E+00 0.29909640467E+00 0.38332031045E+00
 0.48419501912E+00 0.59679035909E+00 0.71247740281E+00 0.82004052830E+00 0.90761149686E+00
 0.96484064653E+00 0.98473742915E+00 0.96484064092E+00 0.90761148615E+00 0.82004051339E+00
 0.71247738484E+00 0.59679033929E+00 0.48419499874E+00 0.38332029066E+00 0.29909638643E+00
 0.23277753505E+00 0.18296840012E+00 0.14713067539E+00 0.12290806451E+00 0.10880110426E+00
 0.89296990403E-01 0.93627645992E-01 0.10652615384E+00 0.12796017512E+00 0.15845933943E+00
 0.19934827234E+00 0.25233551117E+00 0.31848788511E+00 0.39698408510E+00 0.48419501643E+00
 0.57356196488E+00 0.65645272970E+00 0.72375192947E+00 0.76761597433E+00 0.78284043759E+00
 0.76761596892E+00 0.72375191914E+00 0.65645271531E+00 0.57356194753E+00 0.48419499734E+00
 0.39698406545E+00 0.31848786599E+00 0.25233549345E+00 0.19934825670E+00 0.15845932634E+00
 0.12796016495E+00 0.10652614688E+00 0.93627642452E-01 0.74987406890E-01 0.78930385790E-01
 0.90500406082E-01 0.10918311392E+00 0.13477222499E+00 0.16774753411E+00 0.20909219407E+00
 0.25952794206E+00 0.31848788311E+00 0.38332030608E+00 0.44917156513E+00 0.50971157443E+00
 0.55843282066E+00 0.58995240870E+00 0.60084493304E+00 0.58995240378E+00 0.55843281125E+00
 0.50971156129E+00 0.44917154926E+00 0.38332028857E+00 0.31848786502E+00 0.25952792434E+00
 0.20909217750E+00 0.16774751931E+00 0.13477221246E+00 0.10918310409E+00 0.90500399293E-01
 0.78930382320E-01 0.62458436291E-01 0.65948296568E-01 0.76080664076E-01 0.92080819740E-01
 0.11327811304E+00 0.13955691059E+00 0.17135235919E+00 0.20909219289E+00 0.25233550822E+00
 0.29909639984E+00 0.34580033221E+00 0.38797444819E+00 0.42131665282E+00 0.44256991731E+00
 0.44985227292E+00 0.44256991301E+00 0.42131664457E+00 0.38797443664E+00 0.34580031819E+00
 0.29909638429E+00 0.25233549205E+00 0.20909217693E+00 0.17135234412E+00 0.13955689699E+00
 0.11327810142E+00 0.92080810548E-01 0.76080657699E-01 0.65948293300E-01 0.52122168905E-01
 0.55102879000E-01 0.63702446123E-01 0.77084469822E-01 0.94386451846E-01 0.11517652367E+00
 0.13955690996E+00 0.16774753236E+00 0.19934826908E+00 0.23277754631E+00 0.26533220284E+00
 0.29388922912E+00 0.31579998862E+00 0.32941340835E+00 0.33400846973E+00 0.32941340468E+00
 0.31579998156E+00 0.29388921919E+00 0.26533219074E+00 0.23277753281E+00 0.19934825494E+00
 0.16774751829E+00 0.13955689658E+00 0.11517651152E+00 0.94386441400E-01 0.77084461529E-01
 0.63702440361E-01 0.55102876046E-01 0.43801997263E-01 0.46243073269E-01 0.53267549314E-01
 0.64125537552E-01 0.77994483308E-01 0.94386451559E-01 0.11327811203E+00 0.13477222281E+00
 0.15845933585E+00 0.18296840854E+00 0.20612509147E+00 0.22567052595E+00 0.24003286929E+00
 0.24860915505E+00 0.25143386826E+00 0.24860915198E+00 0.24003286337E+00 0.22567051758E+00
 0.20612508121E+00 0.18296839704E+00 0.15845932376E+00 0.13477221073E+00 0.11327810049E+00
 0.94386441040E-01 0.77994474257E-01 0.64125530372E-01 0.53267544334E-01 0.46243070721E-01
 0.37187425856E-01 0.39109630398E-01 0.44640800069E-01 0.53191862218E-01 0.64125537557E-01
 0.77084469390E-01 0.92080818334E-01 0.10918311111E+00 0.12796017078E+00 0.14713067999E+00
 0.16478974172E+00 0.17913348218E+00 0.18916559271E+00 0.19485679315E+00 0.19666730750E+00
 0.19485679065E+00 0.18916558788E+00 0.17913347532E+00 0.16478973329E+00 0.14713067052E+00
 0.12796016082E+00 0.10918310115E+00 0.92080808814E-01 0.77084460718E-01 0.64125530109E-01
 0.53191856325E-01 0.44640795994E-01 0.39109628318E-01 0.32183944905E-01 0.33675765643E-01
 0.37971586093E-01 0.44640800290E-01 0.53267549419E-01 0.63702445517E-01 0.76080662104E-01
 0.90500402305E-01 0.10652614825E+00 0.12290806439E+00 0.13783919869E+00 0.14967766740E+00
 0.15764364600E+00 0.16195348705E+00 0.16327573829E+00 0.16195348514E+00 0.15764364229E+00
 0.14967766212E+00 0.13783919221E+00 0.12290805712E+00 0.10652614063E+00 0.90500394706E-01
 0.76080654857E-01 0.63702438921E-01 0.53267543754E-01 0.44640795808E-01 0.37971582995E-01
 0.33675764062E-01 0.28981219310E-01 0.30191272644E-01 0.33675765899E-01 0.39109630797E-01
 0.46243073364E-01 0.55102878062E-01 0.65948293838E-01 0.78930380820E-01 0.93627638859E-01
 0.10880109896E+00 0.12265624350E+00 0.13356208602E+00 0.14076855564E+00 0.14456240798E+00
 0.14569914847E+00 0.14456240671E+00 0.14076855315E+00 0.13356208249E+00 0.12265623917E+00
 0.10880109415E+00 0.93627633864E-01 0.78930375871E-01 0.65948289119E-01 0.55102873743E-01
 0.46243069618E-01 0.39109627798E-01 0.33675763803E-01 0.30191271565E-01 0.27863310208E-01
 0.29087186864E-01 0.32614601952E-01 0.38111395013E-01 0.45287971193E-01 0.54108633320E-01
 0.64788401578E-01 0.77491620244E-01 0.91867997917E-01 0.10676771248E+00 0.12045538325E+00
 0.13130616890E+00 0.13853263107E+00 0.14236779392E+00 0.14352373707E+00 0.14236779336E+00
 0.13853262995E+00 0.13130616729E+00 0.12045538127E+00 0.10676771030E+00 0.91867995671E-01
 0.77491618019E-01 0.64788399415E-01 0.54108631259E-01 0.45287969309E-01 0.38111393420E-01
 0.32614600783E-01 0.29087186242E-01 0.29087186367E-01 0.30408108575E-01 0.34210438421E-01
 0.40115082116E-01 0.47772228650E-01 0.57092390629E-01 0.68259958096E-01 0.81430216464E-01
 0.96250278184E-01 0.11156397166E+00 0.12562808384E+00 0.13681104448E+00 0.14431188334E+00
 0.14833515288E+00 0.14955900621E+00 0.14833515309E+00 0.14431188371E+00 0.13681104497E+00
 0.12562808442E+00 0.11156397233E+00 0.96250278920E-01 0.81430217191E-01 0.68259958706E-01
 0.57092391029E-01 0.47772228807E-01 0.40115082073E-01 0.34210438282E-01 0.30408108464E-01
 0.32614600928E-01 0.34210437964E-01 0.38794013180E-01 0.45867531809E-01 0.54925705448E-01
 0.65743974400E-01 0.78433570265E-01 0.93132227428E-01 0.10948292406E+00 0.12630565702E+00
 0.14181116567E+00 0.15430408775E+00 0.16289080755E+00 0.16764955870E+00 0.16913597720E+00
 0.16764955970E+00 0.16289080943E+00 0.15430409033E+00 0.14181116876E+00 0.12630566044E+00
 0.10948292761E+00 0.93132230887E-01 0.78433573411E-01 0.65743977046E-01 0.54925707481E-01
 0.45867533209E-01 0.38794014015E-01 0.34210438342E-01 0.38111393705E-01 0.40115081507E-01
 0.45867531705E-01 0.54726445522E-01 0.66007190479E-01 0.79340834467E-01 0.94772231674E-01
 0.11243502486E+00 0.13196934708E+00 0.15213423248E+00 0.17099438993E+00 0.18662204570E+00
 0.19781829683E+00 0.20432739789E+00 0.20643275641E+00 0.20432739965E+00 0.19781830016E+00
 0.18662205028E+00 0.17099439537E+00 0.15213423840E+00 0.13196935310E+00 0.11243503065E+00
 0.94772236943E-01 0.79340838984E-01 0.66007194094E-01 0.54726448172E-01 0.45867533412E-01
 0.40115082334E-01 0.45287970195E-01 0.47772228515E-01 0.54925705853E-01 0.66007190946E-01
 0.80229336259E-01 0.97167372836E-01 0.11687136823E+00 0.13950666168E+00 0.16469977547E+00
 0.19106806070E+00 0.21634367292E+00 0.23806283341E+00 0.25434791884E+00 0.26425768315E+00
 0.26756053806E+00 0.26425768563E+00 0.25434792354E+00 0.23806283983E+00 0.21634368047E+00
 0.19106806878E+00 0.16469978354E+00 0.13950666931E+00 0.11687137511E+00 0.97167378742E-01
 0.80229341063E-01 0.66007194569E-01 0.54925708266E-01 0.47772229717E-01 0.54108633513E-01
 0.57092391841E-01 0.65743976094E-01 0.79340836040E-01 0.97167373782E-01 0.11892669968E+00
 0.14481017611E+00 0.17506776027E+00 0.20927119858E+00 0.24574847011E+00 0.28161998640E+00
 0.31346883125E+00 0.33823549541E+00 0.35381177973E+00 0.35910849275E+00 0.35381178287E+00
 0.33823550133E+00 0.31346883931E+00 0.28161999579E+00 0.24574847999E+00 0.20927120824E+00
 0.17506776921E+00 0.14481018405E+00 0.11892670645E+00 0.97167379331E-01 0.79340840301E-01
 0.65743978996E-01 0.57092393314E-01 0.64788403909E-01 0.68259961556E-01 0.78433574024E-01
 0.94772234953E-01 0.11687137052E+00 0.14481017725E+00 0.17910381698E+00 0.22014778933E+00
 0.26737745801E+00 0.31860998880E+00 0.36999918988E+00 0.41669772534E+00 0.45390543416E+00
 0.47779905194E+00 0.48602376864E+00 0.47779905564E+00 0.45390544113E+00 0.41669773477E+00
 0.36999920075E+00 0.31861000006E+00 0.26737746878E+00 0.22014779906E+00 0.17910382544E+00
 0.14481018439E+00 0.11687137637E+00 0.94772239499E-01 0.78433577173E-01 0.68259963177E-01
 0.77491625429E-01 0.81430222832E-01 0.93132233821E-01 0.11243503030E+00 0.13950666564E+00
 0.17506776274E+00 0.22014779053E+00 0.27533627665E+00 0.33980938400E+00 0.41059763956E+00
 0.48250169832E+00 0.54877896642E+00 0.60236913492E+00 0.63721609596E+00 0.64929855048E+00
 0.63721610005E+00 0.60236914261E+00 0.54877897680E+00 0.48250171018E+00 0.41059765164E+00
 0.33980939532E+00 0.27533628662E+00 0.22014779897E+00 0.17506776975E+00 0.13950667136E+00
 0.11243503477E+00 0.93132236965E-01 0.81430224470E-01 0.91868006195E-01 0.96250287656E-01
 0.10948293326E+00 0.13196935485E+00 0.16469978130E+00 0.20927120260E+00 0.26737746066E+00
 0.33980938550E+00 0.42532698857E+00 0.51988663722E+00 0.61658293727E+00 0.70640365044E+00
 0.77963808211E+00 0.82760719183E+00 0.84431104916E+00 0.82760719606E+00 0.77963809007E+00
 0.70640366115E+00 0.61658294940E+00 0.51988664940E+00 0.42532699971E+00 0.33980939503E+00
 0.26737746850E+00 0.20927120896E+00 0.16469978645E+00 0.13196935891E+00 0.10948293615E+00
 0.96250289175E-01 0.10676772351E+00 0.11156398387E+00 0.12630566869E+00 0.15213424235E+00
 0.19106806828E+00 0.24574847573E+00 0.31860999313E+00 0.41059764297E+00 0.51988663937E+00
 0.64111571329E+00 0.76542333481E+00 0.88130911378E+00 0.97621273605E+00 0.10386334389E+01
 0.10604246191E+01 0.10386334430E+01 0.97621274365E+00 0.88130912399E+00 0.76542334629E+00
 0.64111572463E+00 0.51988664946E+00 0.41059765128E+00 0.31860999968E+00 0.24574848088E+00
 0.19106807241E+00 0.15213424563E+00 0.12630567106E+00 0.11156398514E+00 0.12045539616E+00
 0.12562809792E+00 0.14181117902E+00 0.17099440123E+00 0.21634368176E+00 0.28161999327E+00
 0.36999919573E+00 0.48250170373E+00 0.61658294188E+00 0.76542333753E+00 0.91811377892E+00
 0.10606438424E+01 0.11776225503E+01 0.12547423680E+01 0.12817054380E+01 0.12547423715E+01
 0.11776225569E+01 0.10606438512E+01 0.91811378871E+00 0.76542334696E+00 0.61658294992E+00
 0.48250170994E+00 0.36999920027E+00 0.28161999662E+00 0.21634368438E+00 0.17099440337E+00
 0.14181118063E+00 0.12562809880E+00 0.13130618259E+00 0.13681105933E+00 0.15430410176E+00
 0.18662205753E+00 0.23806284271E+00 0.31346883869E+00 0.41669773211E+00 0.54877897330E+00
 0.70640365707E+00 0.88130911889E+00 0.10606438449E+01 0.12280826148E+01 0.13656500947E+01
 0.14564667093E+01 0.14882480151E+01 0.14564667119E+01 0.13656500996E+01 0.12280826213E+01
 0.10606438520E+01 0.88130912537E+00 0.70640366208E+00 0.54877897656E+00 0.41669773392E+00
 0.31346883966E+00 0.23806284339E+00 0.18662205818E+00 0.15430410237E+00 0.13681105971E+00
 0.13853264454E+00 0.14431189798E+00 0.16289082132E+00 0.19781830838E+00 0.25434792788E+00
 0.33823550274E+00 0.45390544117E+00 0.60236914251E+00 0.77963808991E+00 0.97621274256E+00
 0.11776225542E+01 0.13656500960E+01 0.15202181011E+01 0.16223431924E+01 0.16581032498E+01
 0.16223431938E+01 0.15202181038E+01 0.13656500996E+01 0.11776225577E+01 0.97621274524E+00
 0.77963809108E+00 0.60236914211E+00 0.45390543969E+00 0.33823550090E+00 0.25434792627E+00
 0.19781830730E+00 0.16289082076E+00 0.14431189777E+00 0.14236780663E+00 0.14833516678E+00
 0.16764957180E+00 0.20432740884E+00 0.26425769172E+00 0.35381178681E+00 0.47779905901E+00
 0.63721610400E+00 0.82760720038E+00 0.10386334463E+01 0.12547423725E+01 0.14564667109E+01
 0.16223431926E+01 0.17319933526E+01 0.17704019696E+01 0.17319933527E+01 0.16223431928E+01
 0.14564667110E+01 0.12547423720E+01 0.10386334445E+01 0.82760719714E+00 0.63721609947E+00
 0.47779905386E+00 0.35381178186E+00 0.26425768760E+00 0.20432740586E+00 0.16764956995E+00
 0.14833516593E+00 0.14352374902E+00 0.14955901939E+00 0.16913598972E+00 0.20643276701E+00
 0.26756054655E+00 0.35910850007E+00 0.48602377632E+00 0.64929855949E+00 0.84431105892E+00
 0.10604246277E+01 0.12817054436E+01 0.14882480176E+01 0.16581032505E+01 0.17704019700E+01
 0.18097430416E+01 0.17704019687E+01 0.16581032480E+01 0.14882480139E+01 0.12817054386E+01
 0.10604246212E+01 0.84431105101E+00 0.64929855065E+00 0.48602376740E+00 0.35910849195E+00
 0.26756053988E+00 0.20643276209E+00 0.16913598657E+00 0.14955901787E+00 0.14236780491E+00
 0.14833516591E+00 0.16764957209E+00 0.20432741048E+00 0.26425769476E+00 0.35381179127E+00
 0.47779906480E+00 0.63721611088E+00 0.82760720790E+00 0.10386334538E+01 0.12547423794E+01
 0.14564667165E+01 0.16223431966E+01 0.17319933549E+01 0.17704019704E+01 0.17319933522E+01
 0.16223431913E+01 0.14564667091E+01 0.12547423700E+01 0.10386334426E+01 0.82760719541E+00
 0.63721609787E+00 0.47779905227E+00 0.35381178014E+00 0.26425768567E+00 0.20432740371E+00
 0.16764956767E+00 0.14833516375E+00 0.13853264152E+00 0.14431189658E+00 0.16289082212E+00
 0.19781831169E+00 0.25434793382E+00 0.33823551130E+00 0.45390545218E+00 0.60236915555E+00
 0.77963810420E+00 0.97621275701E+00 0.11776225676E+01 0.13656501074E+01 0.15202181097E+01
 0.16223431979E+01 0.16581032523E+01 0.16223431938E+01 0.15202181019E+01 0.13656500964E+01
 0.11776225541E+01 0.97621274153E+00 0.77963808761E+00 0.60236913889E+00 0.45390543653E+00
 0.33823549758E+00 0.25434792263E+00 0.19781830330E+00 0.16289081658E+00 0.14431189384E+00
 0.13130617902E+00 0.13681105802E+00 0.15430410342E+00 0.18662206255E+00 0.23806285122E+00
 0.31346885062E+00 0.41669774723E+00 0.54877899108E+00 0.70640367659E+00 0.88130913883E+00
 0.10606438639E+01 0.12280826314E+01 0.13656501080E+01 0.14564667187E+01 0.14882480206E+01
 0.14564667135E+01 0.13656500982E+01 0.12280826176E+01 0.10606438470E+01 0.88130911998E+00
 0.70640365684E+00 0.54877897164E+00 0.41669772923E+00 0.31346883493E+00 0.23806283840E+00
 0.18662205287E+00 0.15430409696E+00 0.13681105480E+00 0.12045539290E+00 0.12562809736E+00
 0.14181118191E+00 0.17099440793E+00 0.21634369233E+00 0.28162000759E+00 0.36999921348E+00
 0.48250172435E+00 0.61658296443E+00 0.76542336075E+00 0.91811380138E+00 0.10606438627E+01
 0.11776225673E+01 0.12547423809E+01 0.12817054462E+01 0.12547423750E+01 0.11776225561E+01
 0.10606438471E+01 0.91811378250E+00 0.76542333986E+00 0.61658294283E+00 0.48250170331E+00
 0.36999919412E+00 0.28161999073E+00 0.21634367849E+00 0.17099439738E+00 0.14181117481E+00
 0.12562809379E+00 0.10676772119E+00 0.11156398452E+00 0.12630567294E+00 0.15213425048E+00
 0.19106808026E+00 0.24574849132E+00 0.31861001195E+00 0.41059766445E+00 0.51988666265E+00
 0.64111573728E+00 0.76542335824E+00 0.88130913539E+00 0.97621275463E+00 0.10386334535E+01
 0.10604246287E+01 0.10386334474E+01 0.97621274300E+00 0.88130911921E+00 0.76542333875E+00
 0.64111571584E+00 0.51988664062E+00 0.41059764309E+00 0.31860999230E+00 0.24574847413E+00
 0.19106806603E+00 0.15213423953E+00 0.12630566549E+00 0.11156398075E+00 0.91868005026E-01
 0.96250289533E-01 0.10948293868E+00 0.13196936397E+00 0.16469979397E+00 0.20927121848E+00
 0.26737747931E+00 0.33980940632E+00 0.42532701082E+00 0.51988665999E+00 0.61658295952E+00
 0.70640367110E+00 0.77963810007E+00 0.82760720601E+00 0.84431105857E+00 0.82760720012E+00
 0.77963808884E+00 0.70640365547E+00 0.61658294072E+00 0.51988663933E+00 0.42532698962E+00
 0.33980938574E+00 0.26737746028E+00 0.20927120171E+00 0.16469977993E+00 0.13196935305E+00
 0.10948293120E+00 0.96250285718E-01 0.77491625199E-01 0.81430225590E-01 0.93132239945E-01
 0.11243503984E+00 0.13950667836E+00 0.17506777822E+00 0.22014780827E+00 0.27533629605E+00
 0.33980940438E+00 0.41059766016E+00 0.48250171833E+00 0.54877898496E+00 0.60236915103E+00
 0.63721610863E+00 0.64929855874E+00 0.63721610326E+00 0.60236914077E+00 0.54877897067E+00
 0.48250170111E+00 0.41059764122E+00 0.33980938488E+00 0.27533627701E+00 0.22014779052E+00
 0.17506776242E+00 0.13950666500E+00 0.11243502934E+00 0.93132232692E-01 0.81430221878E-01
 0.64788404237E-01 0.68259964695E-01 0.78433580281E-01 0.94772244336E-01 0.11687138277E+00
 0.14481019192E+00 0.17910383353E+00 0.22014780717E+00 0.26737747649E+00 0.31861000727E+00
 0.36999920766E+00 0.41669774173E+00 0.45390544838E+00 0.47779906310E+00 0.48602377590E+00
 0.47779905841E+00 0.45390543939E+00 0.41669772918E+00 0.36999919248E+00 0.31860999049E+00
 0.26737745911E+00 0.22014779006E+00 0.17910381745E+00 0.14481017745E+00 0.11687137042E+00
 0.94772234570E-01 0.78433573502E-01 0.68259961218E-01 0.54108634075E-01 0.57092394928E-01
 0.65743981985E-01 0.79340844767E-01 0.97167385130E-01 0.11892671324E+00 0.14481019137E+00
 0.17506777662E+00 0.20927121542E+00 0.24574848684E+00 0.28162000244E+00 0.31346884602E+00
 0.33823550828E+00 0.35381178998E+00 0.35910849967E+00 0.35381178599E+00 0.33823550062E+00
 0.31346883529E+00 0.28161998940E+00 0.24574847234E+00 0.20927120030E+00 0.17506776162E+00
 0.14481017714E+00 0.11892670034E+00 0.97167374059E-01 0.79340835982E-01 0.65743975878E-01
 0.57092391795E-01 0.45287970797E-01 0.47772231255E-01 0.54925711001E-01 0.66007198594E-01
 0.80229346287E-01 0.97167384929E-01 0.11687138193E+00 0.13950667642E+00 0.16469979068E+00
 0.19106807581E+00 0.21634368741E+00 0.23806284681E+00 0.25434793064E+00 0.26425769278E+00
 0.26756054498E+00 0.26425768947E+00 0.25434792427E+00 0.23806283784E+00 0.21634367646E+00
 0.19106806356E+00 0.16469977783E+00 0.13950666360E+00 0.11687136970E+00 0.97167373794E-01
 0.80229336712E-01 0.66007190997E-01 0.54925705731E-01 0.47772228557E-01 0.38111394242E-01
 0.40115083708E-01 0.45867535824E-01 0.54726451701E-01 0.66007198699E-01 0.79340844526E-01
 0.94772243209E-01 0.11243503739E+00 0.13196936008E+00 0.15213424543E+00 0.17099440239E+00
 0.18662205727E+00 0.19781830711E+00 0.20432740649E+00 0.20643276294E+00 0.20432740384E+00
 0.19781830199E+00 0.18662205002E+00 0.17099439350E+00 0.15213423546E+00 0.13196934958E+00
 0.11243502689E+00 0.94772233163E-01 0.79340835367E-01 0.66007190826E-01 0.54726445467E-01
 0.45867531511E-01 0.40115081506E-01 0.32614601327E-01 0.34210439497E-01 0.38794016050E-01
 0.45867536165E-01 0.54925711330E-01 0.65743981706E-01 0.78433578752E-01 0.93132236740E-01
 0.10948293378E+00 0.12630566673E+00 0.14181117502E+00 0.15430409645E+00 0.16289081534E+00
 0.16764956532E+00 0.16913598241E+00 0.16764956333E+00 0.16289081147E+00 0.15430409096E+00
 0.14181116828E+00 0.12630565916E+00 0.10948292582E+00 0.93132228771E-01 0.78433571127E-01
 0.65743974748E-01 0.54925705343E-01 0.45867531422E-01 0.38794012769E-01 0.34210437821E-01
 0.29087186579E-01 0.30408109359E-01 0.34210439894E-01 0.40115084371E-01 0.47772231728E-01
 0.57092394494E-01 0.68259962628E-01 0.81430221471E-01 0.96250283434E-01 0.11156397692E+00
 0.12562808891E+00 0.13681104919E+00 0.14431188756E+00 0.14833515649E+00 0.14955900911E+00
 0.14833515519E+00 0.14431188503E+00 0.13681104558E+00 0.12562808446E+00 0.11156397195E+00
 0.96250278235E-01 0.81430216288E-01 0.68259957662E-01 0.57092389932E-01 0.47772227763E-01
 0.40115081193E-01 0.34210437670E-01 0.30408108215E-01 0.28282430749E-01 0.29812214959E-01
 0.34217288868E-01 0.41017352372E-01 0.49652143309E-01 0.59768447318E-01 0.71368301289E-01
 0.84607844003E-01 0.99300023354E-01 0.11450714105E+00 0.12864187453E+00 0.14010634523E+00
 0.14800929400E+00 0.15238600737E+00 0.15375042284E+00 0.15238600687E+00 0.14800929301E+00
 0.14010634376E+00 0.12864187267E+00 0.11450713894E+00 0.99300021113E-01 0.84607841723E-01
 0.71368299029E-01 0.59768445137E-01 0.49652141299E-01 0.41017350663E-01 0.34217287610E-01
 0.29812214289E-01 0.29812214566E-01 0.31433234555E-01 0.36086329843E-01 0.43232408105E-01
 0.52258775822E-01 0.62795057553E-01 0.74860022473E-01 0.88635898681E-01 0.10394608135E+00
 0.11983752235E+00 0.13468392527E+00 0.14682896269E+00 0.15530692378E+00 0.16007269267E+00
 0.16157522158E+00 0.16007269298E+00 0.15530692432E+00 0.14682896336E+00 0.13468392601E+00
 0.11983752311E+00 0.10394608211E+00 0.88635899371E-01 0.74860023009E-01 0.62795057867E-01
 0.52258775896E-01 0.43232407994E-01 0.36086329657E-01 0.31433234420E-01 0.34217288040E-01
 0.36086329470E-01 0.41426305484E-01 0.49569151888E-01 0.59792019695E-01 0.71696293654E-01