   2   2   1   0
  0.1350000E+02  0.3000000E-09  0.3000000E-09  0.3000000E-09  0.5000000E-15
  1.000000000000000E-004
  CAR 
 Screening bandgap                       
     15.91344987    -10.90805580  301     -5.89578693      1.00000000
    -10.908  0.0000E+00  0.0000E+00
    -10.819  0.0000E+00  0.0000E+00
    -10.729  0.0000E+00  0.0000E+00
    -10.640  0.0000E+00  0.0000E+00
    -10.550  0.0000E+00  0.0000E+00
    -10.461  0.0000E+00  0.0000E+00
    -10.372  0.0000E+00  0.0000E+00
    -10.282  0.0000E+00  0.0000E+00
    -10.193  0.0000E+00  0.0000E+00
    -10.103  0.0000E+00  0.0000E+00
    -10.014  0.0000E+00  0.0000E+00
     -9.925  0.3657E-10  0.3270E-11
     -9.835  0.4899E-04  0.4380E-05
     -9.746  0.1503E+00  0.1345E-01
     -9.656  0.2146E+01  0.2053E+00
     -9.567  0.4995E+00  0.2499E+00
     -9.478  0.7887E-03  0.2500E+00
     -9.388  0.3177E-08  0.2500E+00
     -9.299  0.0000E+00  0.2500E+00
     -9.209  0.0000E+00  0.2500E+00
     -9.120  0.0000E+00  0.2500E+00
     -9.031  0.0000E+00  0.2500E+00
     -8.941  0.0000E+00  0.2500E+00
     -8.852  0.1082E-11  0.2500E+00
     -8.762  0.6238E-05  0.2500E+00
     -8.673  0.7725E-01  0.2569E+00
     -8.584  0.3434E+01  0.5639E+00
     -8.494  0.2069E+01  0.7489E+00
     -8.405  0.1204E-01  0.7500E+00
     -8.315  0.2040E-06  0.7500E+00
     -8.226  0.7451E-14  0.7500E+00
     -8.137  0.0000E+00  0.7500E+00
     -8.047  0.0000E+00  0.7500E+00
     -7.958  0.9097E-09  0.7500E+00
     -7.868  0.4242E-03  0.7500E+00
     -7.779  0.5408E+00  0.7984E+00
     -7.689  0.4389E+01  0.1191E+01
     -7.600  0.6614E+00  0.1250E+01
     -7.511  0.6761E-03  0.1250E+01
     -7.421  0.1931E-08  0.1250E+01
     -7.332  0.0000E+00  0.1250E+01
     -7.242  0.0000E+00  0.1250E+01
     -7.153  0.3104E-15  0.1250E+01
     -7.064  0.1612E-07  0.1250E+01
     -6.974  0.2755E-02  0.1250E+01
     -6.885  0.1238E+01  0.1361E+01
     -6.795  0.4134E+01  0.1731E+01
     -6.706  0.2179E+00  0.1750E+01
     -6.617  0.4960E-04  0.1750E+01
     -6.527  0.2539E-10  0.1750E+01
     -6.438  0.1707E-14  0.1750E+01
     -6.348  0.6133E-07  0.1750E+01
     -6.259  0.4504E-02  0.1750E+01
     -6.170  0.9416E+00  0.1835E+01
     -6.080  0.1802E+01  0.1996E+01
     -5.991  0.4852E-01  0.2000E+01
     -5.901  0.4860E-05  0.2000E+01
     -5.812  0.1054E-11  0.2000E+01
     -5.723  0.0000E+00  0.2000E+01
     -5.633  0.0000E+00  0.2000E+01
     -5.544  0.0000E+00  0.2000E+01
     -5.454  0.0000E+00  0.2000E+01
     -5.365  0.0000E+00  0.2000E+01
     -5.276  0.0000E+00  0.2000E+01
     -5.186  0.0000E+00  0.2000E+01
     -5.097  0.0000E+00  0.2000E+01
     -5.007  0.0000E+00  0.2000E+01
     -4.918  0.0000E+00  0.2000E+01
     -4.829  0.0000E+00  0.2000E+01
     -4.739  0.0000E+00  0.2000E+01
     -4.650  0.0000E+00  0.2000E+01
     -4.560  0.0000E+00  0.2000E+01
     -4.471  0.0000E+00  0.2000E+01
     -4.381  0.0000E+00  0.2000E+01
     -4.292  0.0000E+00  0.2000E+01
     -4.203  0.0000E+00  0.2000E+01
     -4.113  0.0000E+00  0.2000E+01
     -4.024  0.0000E+00  0.2000E+01
     -3.934  0.0000E+00  0.2000E+01
     -3.845  0.0000E+00  0.2000E+01
     -3.756  0.0000E+00  0.2000E+01
     -3.666  0.0000E+00  0.2000E+01
     -3.577  0.0000E+00  0.2000E+01
     -3.487  0.0000E+00  0.2000E+01
     -3.398  0.0000E+00  0.2000E+01
     -3.309  0.0000E+00  0.2000E+01
     -3.219  0.0000E+00  0.2000E+01
     -3.130  0.0000E+00  0.2000E+01
     -3.040  0.0000E+00  0.2000E+01
     -2.951  0.0000E+00  0.2000E+01
     -2.862  0.0000E+00  0.2000E+01
     -2.772  0.0000E+00  0.2000E+01
     -2.683  0.0000E+00  0.2000E+01
     -2.593  0.5965E-08  0.2000E+01
     -2.504  0.1151E-02  0.2000E+01
     -2.415  0.5784E+00  0.2052E+01
     -2.325  0.2095E+01  0.2239E+01
     -2.236  0.1213E+00  0.2250E+01
     -2.146  0.3104E-04  0.2250E+01
     -2.057  0.1797E-10  0.2250E+01
     -1.968  0.0000E+00  0.2250E+01
     -1.878  0.0000E+00  0.2250E+01
     -1.789  0.0000E+00  0.2250E+01
     -1.699  0.0000E+00  0.2250E+01
     -1.610  0.0000E+00  0.2250E+01
     -1.521  0.0000E+00  0.2250E+01
     -1.431  0.0000E+00  0.2250E+01
     -1.342  0.0000E+00  0.2250E+01
     -1.252  0.0000E+00  0.2250E+01
     -1.163  0.0000E+00  0.2250E+01
     -1.074  0.0000E+00  0.2250E+01
     -0.984  0.0000E+00  0.2250E+01
     -0.895  0.9624E-14  0.2250E+01
     -0.805  0.2504E-06  0.2250E+01
     -0.716  0.1351E-01  0.2251E+01
     -0.626  0.2146E+01  0.2443E+01
     -0.537  0.3362E+01  0.2744E+01
     -0.448  0.7024E-01  0.2750E+01
     -0.358  0.5196E-05  0.2750E+01
     -0.269  0.8227E-12  0.2750E+01
     -0.179  0.0000E+00  0.2750E+01
     -0.090  0.0000E+00  0.2750E+01
     -0.001  0.0000E+00  0.2750E+01
      0.089  0.0000E+00  0.2750E+01
      0.178  0.0000E+00  0.2750E+01
      0.268  0.0000E+00  0.2750E+01
      0.357  0.0000E+00  0.2750E+01
      0.446  0.0000E+00  0.2750E+01
      0.536  0.2712E-10  0.2750E+01
      0.625  0.4045E-04  0.2750E+01
      0.715  0.1374E+00  0.2762E+01
      0.804  0.2157E+01  0.2955E+01
      0.893  0.3276E+01  0.3248E+01
      0.983  0.2785E+01  0.3497E+01
      1.072  0.3288E-01  0.3500E+01
      1.162  0.1248E-05  0.3500E+01
      1.251  0.9934E-13  0.3500E+01
      1.340  0.0000E+00  0.3500E+01
      1.430  0.0000E+00  0.3500E+01
      1.519  0.0000E+00  0.3500E+01
      1.609  0.0000E+00  0.3500E+01
      1.698  0.0000E+00  0.3500E+01
      1.787  0.0000E+00  0.3500E+01
      1.877  0.0000E+00  0.3500E+01
      1.966  0.0000E+00  0.3500E+01
      2.056  0.0000E+00  0.3500E+01
      2.145  0.0000E+00  0.3500E+01
      2.234  0.0000E+00  0.3500E+01
      2.324  0.0000E+00  0.3500E+01
      2.413  0.0000E+00  0.3500E+01
      2.503  0.0000E+00  0.3500E+01
      2.592  0.0000E+00  0.3500E+01
      2.682  0.0000E+00  0.3500E+01
      2.771  0.0000E+00  0.3500E+01
      2.860  0.0000E+00  0.3500E+01
      2.950  0.0000E+00  0.3500E+01
      3.039  0.0000E+00  0.3500E+01
      3.129  0.0000E+00  0.3500E+01
      3.218  0.0000E+00  0.3500E+01
      3.307  0.0000E+00  0.3500E+01
      3.397  0.0000E+00  0.3500E+01
      3.486  0.0000E+00  0.3500E+01
      3.576  0.0000E+00  0.3500E+01
      3.665  0.0000E+00  0.3500E+01
      3.754  0.3894E-09  0.3500E+01
      3.844  0.2827E-03  0.3500E+01
      3.933  0.4865E+00  0.3544E+01
      4.023  0.4429E+01  0.3939E+01
      4.112  0.6766E+00  0.4000E+01
      4.201  0.6069E-03  0.4000E+01
      4.291  0.1343E-08  0.4000E+01
      4.380  0.3403E-04  0.4000E+01
      4.470  0.1815E+00  0.4016E+01
      4.559  0.4028E+01  0.4376E+01
      4.648  0.1379E+01  0.4500E+01
      4.738  0.3689E-02  0.4500E+01
      4.827  0.2640E-07  0.4500E+01
      4.917  0.0000E+00  0.4500E+01
      5.006  0.3104E-15  0.4500E+01
      5.095  0.1676E-07  0.4500E+01
      5.185  0.2123E-02  0.4500E+01
      5.274  0.7257E+00  0.4565E+01
      5.364  0.1986E+01  0.4743E+01
      5.453  0.8388E-01  0.4750E+01
      5.542  0.5615E+00  0.4800E+01
      5.632  0.3445E+01  0.5108E+01
      5.721  0.4189E+01  0.5483E+01
      5.811  0.1919E+00  0.5500E+01
      5.900  0.3813E-04  0.5500E+01
      5.989  0.1692E-10  0.5500E+01
      6.079  0.0000E+00  0.5500E+01
      6.168  0.8976E-11  0.5500E+01
      6.258  0.1982E-04  0.5500E+01
      6.347  0.1004E+00  0.5509E+01
      6.437  0.3255E+01  0.5800E+01
      6.526  0.4808E+01  0.6230E+01
      6.615  0.2250E+00  0.6250E+01
      6.705  0.5227E-04  0.6250E+01
      6.794  0.2753E-10  0.6250E+01
      6.884  0.0000E+00  0.6250E+01
      6.973  0.8768E-09  0.6250E+01
      7.062  0.3600E-03  0.6250E+01
      7.152  0.3634E+00  0.6283E+01
      7.241  0.2208E+01  0.6480E+01
      7.331  0.2250E+00  0.6500E+01
      7.420  0.6086E+00  0.6554E+01
      7.509  0.4439E+01  0.6951E+01
      7.599  0.5446E+00  0.7000E+01
      7.688  0.3656E-03  0.7000E+01
      7.778  0.5874E-09  0.7000E+01
      7.867  0.0000E+00  0.7000E+01
      7.956  0.0000E+00  0.7000E+01
      8.046  0.0000E+00  0.7000E+01
      8.135  0.0000E+00  0.7000E+01
      8.225  0.0000E+00  0.7000E+01
      8.314  0.0000E+00  0.7000E+01
      8.403  0.0000E+00  0.7000E+01
      8.493  0.0000E+00  0.7000E+01
      8.582  0.0000E+00  0.7000E+01
      8.672  0.1381E-13  0.7000E+01
      8.761  0.2621E-06  0.7000E+01
      8.850  0.1021E-01  0.7001E+01
      8.940  0.1217E+01  0.7110E+01
      9.029  0.1545E+01  0.7248E+01
      9.119  0.2455E-01  0.7250E+01
      9.208  0.6719E-01  0.7256E+01
      9.297  0.1917E+01  0.7427E+01
      9.387  0.8094E+00  0.7500E+01
      9.476  0.2887E-02  0.7500E+01
      9.566  0.2837E-07  0.7500E+01
      9.655  0.3899E-08  0.7500E+01
      9.745  0.1174E-02  0.7500E+01
      9.834  0.8880E+00  0.7579E+01
      9.923  0.4351E+01  0.7969E+01
     10.013  0.3522E+00  0.8000E+01
     10.102  0.1379E-03  0.8000E+01
     10.192  0.1250E-09  0.8000E+01
     10.281  0.0000E+00  0.8000E+01
     10.370  0.0000E+00  0.8000E+01
     10.460  0.0000E+00  0.8000E+01
     10.549  0.0000E+00  0.8000E+01
     10.639  0.0000E+00  0.8000E+01
     10.728  0.0000E+00  0.8000E+01
     10.817  0.0000E+00  0.8000E+01
     10.907  0.0000E+00  0.8000E+01
     10.996  0.6134E-09  0.8000E+01
     11.086  0.3756E-03  0.8000E+01
     11.175  0.5510E+00  0.8049E+01
     11.264  0.4439E+01  0.8446E+01
     11.354  0.6016E+00  0.8500E+01
     11.443  0.4603E-03  0.8500E+01
     11.533  0.8505E-09  0.8500E+01
     11.622  0.0000E+00  0.8500E+01
     11.711  0.0000E+00  0.8500E+01
     11.801  0.3570E-14  0.8500E+01
     11.890  0.1043E-06  0.8500E+01
     11.980  0.6092E-02  0.8501E+01
     12.069  0.1039E+01  0.8593E+01
     12.158  0.1713E+01  0.8747E+01
     12.248  0.3824E-01  0.8750E+01
     12.337  0.3059E-05  0.8750E+01
     12.427  0.5253E-12  0.8750E+01
     12.516  0.0000E+00  0.8750E+01
     12.605  0.0000E+00  0.8750E+01
     12.695  0.0000E+00  0.8750E+01
     12.784  0.0000E+00  0.8750E+01
     12.874  0.0000E+00  0.8750E+01
     12.963  0.0000E+00  0.8750E+01
     13.052  0.0000E+00  0.8750E+01
     13.142  0.0000E+00  0.8750E+01
     13.231  0.0000E+00  0.8750E+01
     13.321  0.0000E+00  0.8750E+01
     13.410  0.2173E-14  0.8750E+01
     13.500  0.9319E-07  0.8750E+01
     13.589  0.7693E-02  0.8751E+01
     13.678  0.1786E+01  0.8910E+01
     13.768  0.3689E+01  0.9240E+01
     13.857  0.1093E+00  0.9250E+01
     13.947  0.1227E-04  0.9250E+01
     14.036  0.3001E-11  0.9250E+01
     14.125  0.0000E+00  0.9250E+01
     14.215  0.1721E-11  0.9250E+01
     14.304  0.6718E-05  0.9250E+01
     14.394  0.5720E-01  0.9255E+01
     14.483  0.1861E+01  0.9421E+01
     14.572  0.8762E+00  0.9500E+01
     14.662  0.1003E+01  0.9589E+01
     14.751  0.4291E+01  0.9973E+01
     14.841  0.3007E+00  0.1000E+02
     14.930  0.9798E-04  0.1000E+02
     15.019  0.7315E-10  0.1000E+02
     15.109  0.0000E+00  0.1000E+02
     15.198  0.0000E+00  0.1000E+02
     15.288  0.0000E+00  0.1000E+02
     15.377  0.0000E+00  0.1000E+02
     15.466  0.0000E+00  0.1000E+02
     15.556  0.0000E+00  0.1000E+02
     15.645  0.0000E+00  0.1000E+02
     15.735  0.0000E+00  0.1000E+02
     15.824  0.0000E+00  0.1000E+02
     15.913  0.0000E+00  0.1000E+02
     15.91344987    -10.90805580  301     -5.89578693      1.00000000
    -10.908  0.0000E+00  0.0000E+00  0.0000E+00  0.0000E+00  0.0000E+00  0.0000E+00  0.0000E+00  0.0000E+00  0.0000E+00
    -10.819  0.0000E+00  0.0000E+00  0.0000E+00  0.0000E+00  0.0000E+00  0.0000E+00  0.0000E+00  0.0000E+00  0.0000E+00
    -10.729  0.0000E+00  0.0000E+00  0.0000E+00  0.0000E+00  0.0000E+00  0.0000E+00  0.0000E+00  0.0000E+00  0.0000E+00
    -10.640  0.0000E+00  0.0000E+00  0.0000E+00  0.0000E+00  0.0000E+00  0.0000E+00  0.0000E+00  0.0000E+00  0.0000E+00
    -10.550  0.0000E+00  0.0000E+00  0.0000E+00  0.0000E+00  0.0000E+00  0.0000E+00  0.0000E+00  0.0000E+00  0.0000E+00
    -10.461  0.0000E+00  0.0000E+00  0.0000E+00  0.0000E+00  0.0000E+00  0.0000E+00  0.0000E+00  0.0000E+00  0.0000E+00
    -10.372  0.0000E+00  0.0000E+00  0.0000E+00  0.0000E+00  0.0000E+00  0.0000E+00  0.0000E+00  0.0000E+00  0.0000E+00
    -10.282  0.0000E+00  0.0000E+00  0.0000E+00  0.0000E+00  0.0000E+00  0.0000E+00  0.0000E+00  0.0000E+00  0.0000E+00
    -10.193  0.0000E+00  0.0000E+00  0.0000E+00  0.0000E+00  0.0000E+00  0.0000E+00  0.0000E+00  0.0000E+00  0.0000E+00
    -10.103  0.0000E+00  0.0000E+00  0.0000E+00  0.0000E+00  0.0000E+00  0.0000E+00  0.0000E+00  0.0000E+00  0.0000E+00
    -10.014  0.0000E+00  0.0000E+00  0.0000E+00  0.0000E+00  0.0000E+00  0.0000E+00  0.0000E+00  0.0000E+00  0.0000E+00
     -9.925  0.7076E-11  0.6101E-29  0.5604E-13  0.7214E-29  0.0000E+00  0.0000E+00  0.0000E+00  0.0000E+00  0.0000E+00
     -9.835  0.9479E-05  0.8173E-23  0.7507E-07  0.9663E-23  0.0000E+00  0.0000E+00  0.0000E+00  0.0000E+00  0.0000E+00
     -9.746  0.2909E-01  0.2508E-19  0.2304E-03  0.2965E-19  0.0000E+00  0.0000E+00  0.0000E+00  0.0000E+00  0.0000E+00
     -9.656  0.4151E+00  0.3579E-18  0.3288E-02  0.4232E-18  0.0000E+00  0.0000E+00  0.0000E+00  0.0000E+00  0.0000E+00
     -9.567  0.9664E-01  0.8332E-19  0.7654E-03  0.9851E-19  0.0000E+00  0.0000E+00  0.0000E+00  0.0000E+00  0.0000E+00
     -9.478  0.1526E-03  0.1316E-21  0.1209E-05  0.1556E-21  0.0000E+00  0.0000E+00  0.0000E+00  0.0000E+00  0.0000E+00
     -9.388  0.6146E-09  0.5299E-27  0.4868E-11  0.6265E-27  0.0000E+00  0.0000E+00  0.0000E+00  0.0000E+00  0.0000E+00
     -9.299  0.0000E+00  0.0000E+00  0.0000E+00  0.0000E+00  0.0000E+00  0.0000E+00  0.0000E+00  0.0000E+00  0.0000E+00
     -9.209  0.0000E+00  0.0000E+00  0.0000E+00  0.0000E+00  0.0000E+00  0.0000E+00  0.0000E+00  0.0000E+00  0.0000E+00
     -9.120  0.0000E+00  0.0000E+00  0.0000E+00  0.0000E+00  0.0000E+00  0.0000E+00  0.0000E+00  0.0000E+00  0.0000E+00
     -9.031  0.0000E+00  0.0000E+00  0.0000E+00  0.0000E+00  0.0000E+00  0.0000E+00  0.0000E+00  0.0000E+00  0.0000E+00
     -8.941  0.0000E+00  0.0000E+00  0.0000E+00  0.0000E+00  0.0000E+00  0.0000E+00  0.0000E+00  0.0000E+00  0.0000E+00
     -8.852  0.2491E-12  0.1881E-29  0.2372E-14  0.2770E-30  0.0000E+00  0.0000E+00  0.0000E+00  0.0000E+00  0.0000E+00
     -8.762  0.1436E-05  0.1084E-22  0.1367E-07  0.1597E-23  0.0000E+00  0.0000E+00  0.0000E+00  0.0000E+00  0.0000E+00
     -8.673  0.1778E-01  0.1343E-18  0.1693E-03  0.1977E-19  0.0000E+00  0.0000E+00  0.0000E+00  0.0000E+00  0.0000E+00
     -8.584  0.7906E+00  0.5970E-17  0.7528E-02  0.8791E-18  0.0000E+00  0.0000E+00  0.0000E+00  0.0000E+00  0.0000E+00
     -8.494  0.4763E+00  0.3597E-17  0.4536E-02  0.5297E-18  0.0000E+00  0.0000E+00  0.0000E+00  0.0000E+00  0.0000E+00
     -8.405  0.2771E-02  0.2092E-19  0.2638E-04  0.3081E-20  0.0000E+00  0.0000E+00  0.0000E+00  0.0000E+00  0.0000E+00
     -8.315  0.4697E-07  0.3547E-24  0.4472E-09  0.5223E-25  0.0000E+00  0.0000E+00  0.0000E+00  0.0000E+00  0.0000E+00
     -8.226  0.1715E-14  0.1295E-31  0.1633E-16  0.1907E-32  0.0000E+00  0.0000E+00  0.0000E+00  0.0000E+00  0.0000E+00
     -8.137  0.0000E+00  0.0000E+00  0.0000E+00  0.0000E+00  0.0000E+00  0.0000E+00  0.0000E+00  0.0000E+00  0.0000E+00
     -8.047  0.0000E+00  0.0000E+00  0.0000E+00  0.0000E+00  0.0000E+00  0.0000E+00  0.0000E+00  0.0000E+00  0.0000E+00
     -7.958  0.2336E-09  0.2606E-28  0.2480E-11  0.4454E-29  0.0000E+00  0.0000E+00  0.0000E+00  0.0000E+00  0.0000E+00
     -7.868  0.1079E-03  0.2773E-22  0.1280E-05  0.2703E-23  0.0000E+00  0.0000E+00  0.0000E+00  0.0000E+00  0.0000E+00
     -7.779  0.1351E+00  0.6844E-19  0.1895E-02  0.4774E-20  0.0000E+00  0.0000E+00  0.0000E+00  0.0000E+00  0.0000E+00
     -7.689  0.1078E+01  0.8233E-18  0.1751E-01  0.4951E-19  0.0000E+00  0.0000E+00  0.0000E+00  0.0000E+00  0.0000E+00
     -7.600  0.1596E+00  0.1639E-18  0.2955E-02  0.9060E-20  0.0000E+00  0.0000E+00  0.0000E+00  0.0000E+00  0.0000E+00
     -7.511  0.1602E-03  0.2095E-21  0.3354E-05  0.1095E-22  0.0000E+00  0.0000E+00  0.0000E+00  0.0000E+00  0.0000E+00
     -7.421  0.4523E-09  0.6713E-27  0.1016E-10  0.3420E-28  0.0000E+00  0.0000E+00  0.0000E+00  0.0000E+00  0.0000E+00
     -7.332  0.0000E+00  0.0000E+00  0.0000E+00  0.0000E+00  0.0000E+00  0.0000E+00  0.0000E+00  0.0000E+00  0.0000E+00
     -7.242  0.0000E+00  0.0000E+00  0.0000E+00  0.0000E+00  0.0000E+00  0.0000E+00  0.0000E+00  0.0000E+00  0.0000E+00
     -7.153  0.8161E-16  0.2897E-33  0.1844E-17  0.1796E-33  0.0000E+00  0.0000E+00  0.0000E+00  0.0000E+00  0.0000E+00
     -7.064  0.4238E-08  0.1504E-25  0.9574E-10  0.9325E-26  0.0000E+00  0.0000E+00  0.0000E+00  0.0000E+00  0.0000E+00
     -6.974  0.7243E-03  0.2571E-20  0.1636E-04  0.1594E-20  0.0000E+00  0.0000E+00  0.0000E+00  0.0000E+00  0.0000E+00
     -6.885  0.3254E+00  0.1155E-17  0.7352E-02  0.7161E-18  0.0000E+00  0.0000E+00  0.0000E+00  0.0000E+00  0.0000E+00
     -6.795  0.1087E+01  0.3858E-17  0.2455E-01  0.2391E-17  0.0000E+00  0.0000E+00  0.0000E+00  0.0000E+00  0.0000E+00
     -6.706  0.5727E-01  0.2033E-18  0.1294E-02  0.1260E-18  0.0000E+00  0.0000E+00  0.0000E+00  0.0000E+00  0.0000E+00
     -6.617  0.1304E-04  0.4629E-22  0.2946E-06  0.2869E-22  0.0000E+00  0.0000E+00  0.0000E+00  0.0000E+00  0.0000E+00
     -6.527  0.6676E-11  0.2370E-28  0.1508E-12  0.1469E-28  0.0000E+00  0.0000E+00  0.0000E+00  0.0000E+00  0.0000E+00
     -6.438  0.4897E-15  0.1417E-33  0.1179E-16  0.9457E-34  0.0000E+00  0.0000E+00  0.0000E+00  0.0000E+00  0.0000E+00
     -6.348  0.1759E-07  0.5091E-26  0.4236E-09  0.3397E-26  0.0000E+00  0.0000E+00  0.0000E+00  0.0000E+00  0.0000E+00
     -6.259  0.1292E-02  0.3738E-21  0.3111E-04  0.2495E-21  0.0000E+00  0.0000E+00  0.0000E+00  0.0000E+00  0.0000E+00
     -6.170  0.2701E+00  0.7815E-19  0.6503E-02  0.5215E-19  0.0000E+00  0.0000E+00  0.0000E+00  0.0000E+00  0.0000E+00
     -6.080  0.5168E+00  0.1495E-18  0.1244E-01  0.9979E-19  0.0000E+00  0.0000E+00  0.0000E+00  0.0000E+00  0.0000E+00
     -5.991  0.1392E-01  0.4028E-20  0.3351E-03  0.2688E-20  0.0000E+00  0.0000E+00  0.0000E+00  0.0000E+00  0.0000E+00
     -5.901  0.1394E-05  0.4034E-24  0.3356E-07  0.2692E-24  0.0000E+00  0.0000E+00  0.0000E+00  0.0000E+00  0.0000E+00
     -5.812  0.3024E-12  0.8751E-31  0.7281E-14  0.5839E-31  0.0000E+00  0.0000E+00  0.0000E+00  0.0000E+00  0.0000E+00
     -5.723  0.0000E+00  0.0000E+00  0.0000E+00  0.0000E+00  0.0000E+00  0.0000E+00  0.0000E+00  0.0000E+00  0.0000E+00
     -5.633  0.0000E+00  0.0000E+00  0.0000E+00  0.0000E+00  0.0000E+00  0.0000E+00  0.0000E+00  0.0000E+00  0.0000E+00
     -5.544  0.0000E+00  0.0000E+00  0.0000E+00  0.0000E+00  0.0000E+00  0.0000E+00  0.0000E+00  0.0000E+00  0.0000E+00
     -5.454  0.0000E+00  0.0000E+00  0.0000E+00  0.0000E+00  0.0000E+00  0.0000E+00  0.0000E+00  0.0000E+00  0.0000E+00
     -5.365  0.0000E+00  0.0000E+00  0.0000E+00  0.0000E+00  0.0000E+00  0.0000E+00  0.0000E+00  0.0000E+00  0.0000E+00
     -5.276  0.0000E+00  0.0000E+00  0.0000E+00  0.0000E+00  0.0000E+00  0.0000E+00  0.0000E+00  0.0000E+00  0.0000E+00
     -5.186  0.0000E+00  0.0000E+00  0.0000E+00  0.0000E+00  0.0000E+00  0.0000E+00  0.0000E+00  0.0000E+00  0.0000E+00
     -5.097  0.0000E+00  0.0000E+00  0.0000E+00  0.0000E+00  0.0000E+00  0.0000E+00  0.0000E+00  0.0000E+00  0.0000E+00
     -5.007  0.0000E+00  0.0000E+00  0.0000E+00  0.0000E+00  0.0000E+00  0.0000E+00  0.0000E+00  0.0000E+00  0.0000E+00
     -4.918  0.0000E+00  0.0000E+00  0.0000E+00  0.0000E+00  0.0000E+00  0.0000E+00  0.0000E+00  0.0000E+00  0.0000E+00
     -4.829  0.0000E+00  0.0000E+00  0.0000E+00  0.0000E+00  0.0000E+00  0.0000E+00  0.0000E+00  0.0000E+00  0.0000E+00
     -4.739  0.0000E+00  0.0000E+00  0.0000E+00  0.0000E+00  0.0000E+00  0.0000E+00  0.0000E+00  0.0000E+00  0.0000E+00
     -4.650  0.0000E+00  0.0000E+00  0.0000E+00  0.0000E+00  0.0000E+00  0.0000E+00  0.0000E+00  0.0000E+00  0.0000E+00
     -4.560  0.0000E+00  0.0000E+00  0.0000E+00  0.0000E+00  0.0000E+00  0.0000E+00  0.0000E+00  0.0000E+00  0.0000E+00
     -4.471  0.0000E+00  0.0000E+00  0.0000E+00  0.0000E+00  0.0000E+00  0.0000E+00  0.0000E+00  0.0000E+00  0.0000E+00
     -4.381  0.0000E+00  0.0000E+00  0.0000E+00  0.0000E+00  0.0000E+00  0.0000E+00  0.0000E+00  0.0000E+00  0.0000E+00
     -4.292  0.0000E+00  0.0000E+00  0.0000E+00  0.0000E+00  0.0000E+00  0.0000E+00  0.0000E+00  0.0000E+00  0.0000E+00
     -4.203  0.0000E+00  0.0000E+00  0.0000E+00  0.0000E+00  0.0000E+00  0.0000E+00  0.0000E+00  0.0000E+00  0.0000E+00
     -4.113  0.0000E+00  0.0000E+00  0.0000E+00  0.0000E+00  0.0000E+00  0.0000E+00  0.0000E+00  0.0000E+00  0.0000E+00
     -4.024  0.0000E+00  0.0000E+00  0.0000E+00  0.0000E+00  0.0000E+00  0.0000E+00  0.0000E+00  0.0000E+00  0.0000E+00
     -3.934  0.0000E+00  0.0000E+00  0.0000E+00  0.0000E+00  0.0000E+00  0.0000E+00  0.0000E+00  0.0000E+00  0.0000E+00
     -3.845  0.0000E+00  0.0000E+00  0.0000E+00  0.0000E+00  0.0000E+00  0.0000E+00  0.0000E+00  0.0000E+00  0.0000E+00
     -3.756  0.0000E+00  0.0000E+00  0.0000E+00  0.0000E+00  0.0000E+00  0.0000E+00  0.0000E+00  0.0000E+00  0.0000E+00
     -3.666  0.0000E+00  0.0000E+00  0.0000E+00  0.0000E+00  0.0000E+00  0.0000E+00  0.0000E+00  0.0000E+00  0.0000E+00
     -3.577  0.0000E+00  0.0000E+00  0.0000E+00  0.0000E+00  0.0000E+00  0.0000E+00  0.0000E+00  0.0000E+00  0.0000E+00
     -3.487  0.0000E+00  0.0000E+00  0.0000E+00  0.0000E+00  0.0000E+00  0.0000E+00  0.0000E+00  0.0000E+00  0.0000E+00
     -3.398  0.0000E+00  0.0000E+00  0.0000E+00  0.0000E+00  0.0000E+00  0.0000E+00  0.0000E+00  0.0000E+00  0.0000E+00
     -3.309  0.0000E+00  0.0000E+00  0.0000E+00  0.0000E+00  0.0000E+00  0.0000E+00  0.0000E+00  0.0000E+00  0.0000E+00
     -3.219  0.0000E+00  0.0000E+00  0.0000E+00  0.0000E+00  0.0000E+00  0.0000E+00  0.0000E+00  0.0000E+00  0.0000E+00
     -3.130  0.0000E+00  0.0000E+00  0.0000E+00  0.0000E+00  0.0000E+00  0.0000E+00  0.0000E+00  0.0000E+00  0.0000E+00
     -3.040  0.0000E+00  0.0000E+00  0.0000E+00  0.0000E+00  0.0000E+00  0.0000E+00  0.0000E+00  0.0000E+00  0.0000E+00
     -2.951  0.0000E+00  0.0000E+00  0.0000E+00  0.0000E+00  0.0000E+00  0.0000E+00  0.0000E+00  0.0000E+00  0.0000E+00
     -2.862  0.0000E+00  0.0000E+00  0.0000E+00  0.0000E+00  0.0000E+00  0.0000E+00  0.0000E+00  0.0000E+00  0.0000E+00
     -2.772  0.0000E+00  0.0000E+00  0.0000E+00  0.0000E+00  0.0000E+00  0.0000E+00  0.0000E+00  0.0000E+00  0.0000E+00
     -2.683  0.0000E+00  0.0000E+00  0.0000E+00  0.0000E+00  0.0000E+00  0.0000E+00  0.0000E+00  0.0000E+00  0.0000E+00
     -2.593  0.5464E-09  0.6920E-26  0.5451E-10  0.7842E-28  0.0000E+00  0.0000E+00  0.0000E+00  0.0000E+00  0.0000E+00
     -2.504  0.1055E-03  0.1336E-20  0.1052E-04  0.1514E-22  0.0000E+00  0.0000E+00  0.0000E+00  0.0000E+00  0.0000E+00
     -2.415  0.5298E-01  0.6710E-18  0.5285E-02  0.7604E-20  0.0000E+00  0.0000E+00  0.0000E+00  0.0000E+00  0.0000E+00
     -2.325  0.1919E+00  0.2431E-17  0.1915E-01  0.2755E-19  0.0000E+00  0.0000E+00  0.0000E+00  0.0000E+00  0.0000E+00
     -2.236  0.1111E-01  0.1407E-18  0.1108E-02  0.1594E-20  0.0000E+00  0.0000E+00  0.0000E+00  0.0000E+00  0.0000E+00
     -2.146  0.2843E-05  0.3601E-22  0.2837E-06  0.4081E-24  0.0000E+00  0.0000E+00  0.0000E+00  0.0000E+00  0.0000E+00
     -2.057  0.1646E-11  0.2085E-28  0.1642E-12  0.2363E-30  0.0000E+00  0.0000E+00  0.0000E+00  0.0000E+00  0.0000E+00
     -1.968  0.0000E+00  0.0000E+00  0.0000E+00  0.0000E+00  0.0000E+00  0.0000E+00  0.0000E+00  0.0000E+00  0.0000E+00
     -1.878  0.0000E+00  0.0000E+00  0.0000E+00  0.0000E+00  0.0000E+00  0.0000E+00  0.0000E+00  0.0000E+00  0.0000E+00
     -1.789  0.0000E+00  0.0000E+00  0.0000E+00  0.0000E+00  0.0000E+00  0.0000E+00  0.0000E+00  0.0000E+00  0.0000E+00
     -1.699  0.0000E+00  0.0000E+00  0.0000E+00  0.0000E+00  0.0000E+00  0.0000E+00  0.0000E+00  0.0000E+00  0.0000E+00
     -1.610  0.0000E+00  0.0000E+00  0.0000E+00  0.0000E+00  0.0000E+00  0.0000E+00  0.0000E+00  0.0000E+00  0.0000E+00
     -1.521  0.0000E+00  0.0000E+00  0.0000E+00  0.0000E+00  0.0000E+00  0.0000E+00  0.0000E+00  0.0000E+00  0.0000E+00
     -1.431  0.0000E+00  0.0000E+00  0.0000E+00  0.0000E+00  0.0000E+00  0.0000E+00  0.0000E+00  0.0000E+00  0.0000E+00
     -1.342  0.0000E+00  0.0000E+00  0.0000E+00  0.0000E+00  0.0000E+00  0.0000E+00  0.0000E+00  0.0000E+00  0.0000E+00
     -1.252  0.0000E+00  0.0000E+00  0.0000E+00  0.0000E+00  0.0000E+00  0.0000E+00  0.0000E+00  0.0000E+00  0.0000E+00
     -1.163  0.0000E+00  0.0000E+00  0.0000E+00  0.0000E+00  0.0000E+00  0.0000E+00  0.0000E+00  0.0000E+00  0.0000E+00
     -1.074  0.0000E+00  0.0000E+00  0.0000E+00  0.0000E+00  0.0000E+00  0.0000E+00  0.0000E+00  0.0000E+00  0.0000E+00
     -0.984  0.0000E+00  0.0000E+00  0.0000E+00  0.0000E+00  0.0000E+00  0.0000E+00  0.0000E+00  0.0000E+00  0.0000E+00
     -0.895  0.1205E-14  0.3121E-32  0.1139E-15  0.2783E-32  0.0000E+00  0.0000E+00  0.0000E+00  0.0000E+00  0.0000E+00
     -0.805  0.3136E-07  0.8120E-25  0.2964E-08  0.7241E-25  0.0000E+00  0.0000E+00  0.0000E+00  0.0000E+00  0.0000E+00
     -0.716  0.1692E-02  0.4382E-20  0.1600E-03  0.3907E-20  0.0000E+00  0.0000E+00  0.0000E+00  0.0000E+00  0.0000E+00
     -0.626  0.2688E+00  0.6960E-18  0.2541E-01  0.6206E-18  0.0000E+00  0.0000E+00  0.0000E+00  0.0000E+00  0.0000E+00
     -0.537  0.4210E+00  0.1090E-17  0.3981E-01  0.9723E-18  0.0000E+00  0.0000E+00  0.0000E+00  0.0000E+00  0.0000E+00
     -0.448  0.8795E-02  0.2278E-19  0.8315E-03  0.2031E-19  0.0000E+00  0.0000E+00  0.0000E+00  0.0000E+00  0.0000E+00
     -0.358  0.6506E-06  0.1685E-23  0.6151E-07  0.1502E-23  0.0000E+00  0.0000E+00  0.0000E+00  0.0000E+00  0.0000E+00
     -0.269  0.1030E-12  0.2668E-30  0.9739E-14  0.2379E-30  0.0000E+00  0.0000E+00  0.0000E+00  0.0000E+00  0.0000E+00
     -0.179  0.0000E+00  0.0000E+00  0.0000E+00  0.0000E+00  0.0000E+00  0.0000E+00  0.0000E+00  0.0000E+00  0.0000E+00
     -0.090  0.0000E+00  0.0000E+00  0.0000E+00  0.0000E+00  0.0000E+00  0.0000E+00  0.0000E+00  0.0000E+00  0.0000E+00
     -0.001  0.0000E+00  0.0000E+00  0.0000E+00  0.0000E+00  0.0000E+00  0.0000E+00  0.0000E+00  0.0000E+00  0.0000E+00
      0.089  0.0000E+00  0.0000E+00  0.0000E+00  0.0000E+00  0.0000E+00  0.0000E+00  0.0000E+00  0.0000E+00  0.0000E+00
      0.178  0.0000E+00  0.0000E+00  0.0000E+00  0.0000E+00  0.0000E+00  0.0000E+00  0.0000E+00  0.0000E+00  0.0000E+00
      0.268  0.0000E+00  0.0000E+00  0.0000E+00  0.0000E+00  0.0000E+00  0.0000E+00  0.0000E+00  0.0000E+00  0.0000E+00
      0.357  0.0000E+00  0.0000E+00  0.0000E+00  0.0000E+00  0.0000E+00  0.0000E+00  0.0000E+00  0.0000E+00  0.0000E+00
      0.446  0.0000E+00  0.0000E+00  0.0000E+00  0.0000E+00  0.0000E+00  0.0000E+00  0.0000E+00  0.0000E+00  0.0000E+00
      0.536  0.4228E-11  0.6079E-30  0.4039E-12  0.5084E-29  0.0000E+00  0.0000E+00  0.0000E+00  0.0000E+00  0.0000E+00
      0.625  0.6306E-05  0.4360E-15  0.6025E-06  0.4360E-15  0.0000E+00  0.0000E+00  0.0000E+00  0.0000E+00  0.0000E+00
      0.715  0.2143E-01  0.5750E-08  0.2047E-02  0.5750E-08  0.0000E+00  0.0000E+00  0.0000E+00  0.0000E+00  0.0000E+00
      0.804  0.3314E+00  0.1585E-03  0.3166E-01  0.1585E-03  0.0000E+00  0.0000E+00  0.0000E+00  0.0000E+00  0.0000E+00
      0.893  0.8293E-01  0.1396E-01  0.7924E-02  0.1396E-01  0.0000E+00  0.0000E+00  0.0000E+00  0.0000E+00  0.0000E+00
      0.983  0.1445E-03  0.1417E-01  0.1380E-04  0.1417E-01  0.0000E+00  0.0000E+00  0.0000E+00  0.0000E+00  0.0000E+00
      1.072  0.6472E-09  0.1673E-03  0.6183E-10  0.1673E-03  0.0000E+00  0.0000E+00  0.0000E+00  0.0000E+00  0.0000E+00
      1.162  0.1415E-24  0.6351E-08  0.6025E-25  0.6351E-08  0.0000E+00  0.0000E+00  0.0000E+00  0.0000E+00  0.0000E+00
      1.251  0.1126E-31  0.5055E-15  0.4795E-32  0.5055E-15  0.0000E+00  0.0000E+00  0.0000E+00  0.0000E+00  0.0000E+00
      1.340  0.0000E+00  0.0000E+00  0.0000E+00  0.0000E+00  0.0000E+00  0.0000E+00  0.0000E+00  0.0000E+00  0.0000E+00
      1.430  0.0000E+00  0.0000E+00  0.0000E+00  0.0000E+00  0.0000E+00  0.0000E+00  0.0000E+00  0.0000E+00  0.0000E+00
      1.519  0.0000E+00  0.0000E+00  0.0000E+00  0.0000E+00  0.0000E+00  0.0000E+00  0.0000E+00  0.0000E+00  0.0000E+00
      1.609  0.0000E+00  0.0000E+00  0.0000E+00  0.0000E+00  0.0000E+00  0.0000E+00  0.0000E+00  0.0000E+00  0.0000E+00
      1.698  0.0000E+00  0.0000E+00  0.0000E+00  0.0000E+00  0.0000E+00  0.0000E+00  0.0000E+00  0.0000E+00  0.0000E+00
      1.787  0.0000E+00  0.0000E+00  0.0000E+00  0.0000E+00  0.0000E+00  0.0000E+00  0.0000E+00  0.0000E+00  0.0000E+00
      1.877  0.0000E+00  0.0000E+00  0.0000E+00  0.0000E+00  0.0000E+00  0.0000E+00  0.0000E+00  0.0000E+00  0.0000E+00
      1.966  0.0000E+00  0.0000E+00  0.0000E+00  0.0000E+00  0.0000E+00  0.0000E+00  0.0000E+00  0.0000E+00  0.0000E+00
      2.056  0.0000E+00  0.0000E+00  0.0000E+00  0.0000E+00  0.0000E+00  0.0000E+00  0.0000E+00  0.0000E+00  0.0000E+00
      2.145  0.0000E+00  0.0000E+00  0.0000E+00  0.0000E+00  0.0000E+00  0.0000E+00  0.0000E+00  0.0000E+00  0.0000E+00
      2.234  0.0000E+00  0.0000E+00  0.0000E+00  0.0000E+00  0.0000E+00  0.0000E+00  0.0000E+00  0.0000E+00  0.0000E+00
      2.324  0.0000E+00  0.0000E+00  0.0000E+00  0.0000E+00  0.0000E+00  0.0000E+00  0.0000E+00  0.0000E+00  0.0000E+00
      2.413  0.0000E+00  0.0000E+00  0.0000E+00  0.0000E+00  0.0000E+00  0.0000E+00  0.0000E+00  0.0000E+00  0.0000E+00
      2.503  0.0000E+00  0.0000E+00  0.0000E+00  0.0000E+00  0.0000E+00  0.0000E+00  0.0000E+00  0.0000E+00  0.0000E+00
      2.592  0.0000E+00  0.0000E+00  0.0000E+00  0.0000E+00  0.0000E+00  0.0000E+00  0.0000E+00  0.0000E+00  0.0000E+00
      2.682  0.0000E+00  0.0000E+00  0.0000E+00  0.0000E+00  0.0000E+00  0.0000E+00  0.0000E+00  0.0000E+00  0.0000E+00
      2.771  0.0000E+00  0.0000E+00  0.0000E+00  0.0000E+00  0.0000E+00  0.0000E+00  0.0000E+00  0.0000E+00  0.0000E+00
      2.860  0.0000E+00  0.0000E+00  0.0000E+00  0.0000E+00  0.0000E+00  0.0000E+00  0.0000E+00  0.0000E+00  0.0000E+00
      2.950  0.0000E+00  0.0000E+00  0.0000E+00  0.0000E+00  0.0000E+00  0.0000E+00  0.0000E+00  0.0000E+00  0.0000E+00
      3.039  0.0000E+00  0.0000E+00  0.0000E+00  0.0000E+00  0.0000E+00  0.0000E+00  0.0000E+00  0.0000E+00  0.0000E+00