    2    2    1    1
  0.1350000E+02  0.3000000E-09  0.3000000E-09  0.3000000E-09  0.5000000E-15
  1.000000000000000E-004
  CAR 
 Screening bandgap                       
      2      8      5
 
  0.0000000E+00  0.0000000E+00  0.0000000E+00  0.1250000E+00
    1       -9.688896   1.000000
    2        5.296966   0.000000
    3        5.572229   0.000000
    4       11.220579   0.000000
    5       11.220579   0.000000
 
  0.5000000E+00  0.0000000E+00  0.0000000E+00  0.1250000E+00
    1       -8.595058   1.000000
    2        0.893742   0.000000
    3        6.464007   0.000000
    4        9.869216   0.000000
    5       13.694782   0.000000
 
  0.0000000E+00  0.5000000E+00  0.0000000E+00  0.1250000E+00
    1       -8.595058   1.000000
    2        0.893742   0.000000
    3        6.464007   0.000000
    4        9.869216   0.000000
    5       13.694782   0.000000
 
  0.5000000E+00  0.5000000E+00  0.0000000E+00  0.1250000E+00
    1       -7.738837   1.000000
    2        3.981232   0.000000
    3        3.981232   0.000000
    4        6.411194   0.000000
    5        7.191566   0.000000
 
  0.0000000E+00  0.0000000E+00  0.5000000E+00  0.1250000E+00
    1       -7.725305   1.000000
    2       -2.385729   0.000000
    3        9.277964   0.000000
    4       12.080429   0.000000
    5       14.465844   0.000000
 
  0.5000000E+00  0.0000000E+00  0.5000000E+00  0.1250000E+00
    1       -6.857751   1.000000
    2       -0.616253   0.000000
    3        4.534866   0.000000
    4        5.656899   0.000000
    5       14.694291   0.000000
 
  0.0000000E+00  0.5000000E+00  0.5000000E+00  0.1250000E+00
    1       -6.857751   1.000000
    2       -0.616253   0.000000
    3        4.534866   0.000000
    4        5.656899   0.000000
    5       14.694291   0.000000
 
  0.5000000E+00  0.5000000E+00  0.5000000E+00  0.1250000E+00
    1       -6.154846   1.000000
    2        0.773038   0.000000
    3        7.463548   0.000000
    4        7.463548   0.000000
    5        8.945296   0.000000
