       N       E                     dE             d eps       ncg     rms          rms(c)
DAV:   1    -0.582844307107E+01   -0.58284E+01   -0.12706E-10    40   0.664E-05    0.627E-06
DAV:   2    -0.582844307108E+01   -0.82849E-11   -0.68057E-12    40   0.200E-05
   1 F= -.58284431E+01 E0= -.58284431E+01  d E =-.774133E-14
