PROCAR lm decomposed + phase
# of k-points:    8         # of bands:   5         # of ions:   2

 k-point    1 :    0.00000000 0.00000000 0.00000000     weight = 0.12500000

band   1 # energy   -9.68889645 # occ.  2.00000000
 
ion      s     py     pz     px    dxy    dyz    dz2    dxz    dx2    tot
  1  0.193  0.000  0.002  0.000  0.000  0.000  0.000  0.000  0.000  0.195
  2  0.193  0.000  0.002  0.000  0.000  0.000  0.000  0.000  0.000  0.195
tot  0.387  0.000  0.003  0.000  0.000  0.000  0.000  0.000  0.000  0.390
ion      s     py     pz     px    dxy    dyz    dz2    dxz    dx2
  1 -0.723 -0.000 -0.040  0.000  0.000  0.000  0.000  0.000  0.000
  1 -0.550  0.000 -0.031 -0.000  0.000  0.000  0.000  0.000  0.000
  2 -0.723 -0.000  0.040  0.000  0.000  0.000  0.000  0.000  0.000
  2 -0.550 -0.000  0.031 -0.000  0.000  0.000  0.000  0.000  0.000
 
band   2 # energy    5.29696622 # occ.  0.00000000
 
ion      s     py     pz     px    dxy    dyz    dz2    dxz    dx2    tot
  1  0.116  0.000  0.009  0.000  0.000  0.000  0.000  0.000  0.000  0.125
  2  0.116  0.000  0.009  0.000  0.000  0.000  0.000  0.000  0.000  0.125
tot  0.231  0.000  0.018  0.000  0.000  0.000  0.000  0.000  0.000  0.250
ion      s     py     pz     px    dxy    dyz    dz2    dxz    dx2
  1 -0.372  0.000 -0.095  0.000  0.000  0.000  0.000  0.000  0.000
  1 -0.314  0.000 -0.080 -0.000  0.000  0.000  0.000  0.000  0.000
  2 -0.372  0.000  0.095  0.000  0.000  0.000  0.000  0.000  0.000
  2 -0.314  0.000  0.080 -0.000  0.000  0.000  0.000  0.000  0.000
 
band   3 # energy    5.57222857 # occ.  0.00000000
 
ion      s     py     pz     px    dxy    dyz    dz2    dxz    dx2    tot
  1  0.208  0.000  0.011  0.000  0.000  0.000  0.000  0.000  0.000  0.219
  2  0.208  0.000  0.011  0.000  0.000  0.000  0.000  0.000  0.000  0.219
tot  0.416  0.000  0.022  0.000  0.000  0.000  0.000  0.000  0.000  0.439
ion      s     py     pz     px    dxy    dyz    dz2    dxz    dx2
  1 -0.609  0.000  0.129 -0.000  0.000  0.000  0.000  0.000  0.000
  1  0.226 -0.000 -0.048  0.000  0.000  0.000  0.000  0.000  0.000
  2  0.609  0.000  0.129 -0.000  0.000  0.000  0.000  0.000  0.000
  2 -0.226  0.000 -0.048  0.000  0.000  0.000  0.000  0.000  0.000
 
band   4 # energy   11.22057869 # occ.  0.00000000
 
ion      s     py     pz     px    dxy    dyz    dz2    dxz    dx2    tot
  1  0.000  0.024  0.000  0.014  0.000  0.000  0.000  0.000  0.000  0.038
  2  0.000  0.024  0.000  0.014  0.000  0.000  0.000  0.000  0.000  0.038
tot  0.000  0.048  0.000  0.029  0.000  0.000  0.000  0.000  0.000  0.077
ion      s     py     pz     px    dxy    dyz    dz2    dxz    dx2
  1  0.000  0.167 -0.000 -0.129  0.000  0.000  0.000  0.000  0.000
  1  0.000 -0.112 -0.000  0.086  0.000  0.000  0.000  0.000  0.000
  2  0.000  0.167  0.000 -0.129  0.000  0.000  0.000  0.000  0.000
  2  0.000 -0.112  0.000  0.086  0.000  0.000  0.000  0.000  0.000
 
band   5 # energy   11.22057874 # occ.  0.00000000
 
ion      s     py     pz     px    dxy    dyz    dz2    dxz    dx2    tot
  1  0.000  0.014  0.000  0.024  0.000  0.000  0.000  0.000  0.000  0.038
  2  0.000  0.014  0.000  0.024  0.000  0.000  0.000  0.000  0.000  0.038
tot  0.000  0.029  0.000  0.048  0.000  0.000  0.000  0.000  0.000  0.077
ion      s     py     pz     px    dxy    dyz    dz2    dxz    dx2
  1 -0.000 -0.149  0.000 -0.193  0.000  0.000  0.000  0.000  0.000
  1  0.000 -0.043 -0.000 -0.056  0.000  0.000  0.000  0.000  0.000
  2 -0.000 -0.149 -0.000 -0.193  0.000  0.000  0.000  0.000  0.000
  2  0.000 -0.043  0.000 -0.056  0.000  0.000  0.000  0.000  0.000
 

 k-point    2 :    0.50000000 0.00000000 0.00000000     weight = 0.12500000

band   1 # energy   -8.59505849 # occ.  2.00000000
 
ion      s     py     pz     px    dxy    dyz    dz2    dxz    dx2    tot
  1  0.230  0.000  0.002  0.000  0.000  0.000  0.000  0.000  0.000  0.232
  2  0.230  0.000  0.002  0.000  0.000  0.000  0.000  0.000  0.000  0.232
tot  0.460  0.000  0.004  0.000  0.000  0.000  0.000  0.000  0.000  0.465
ion      s     py     pz     px    dxy    dyz    dz2    dxz    dx2
  1  0.417  0.000  0.026 -0.000  0.000  0.000  0.000  0.000  0.000
  1 -0.871 -0.000 -0.055 -0.000  0.000  0.000  0.000  0.000  0.000
  2  0.417  0.000 -0.026  0.000  0.000  0.000  0.000  0.000  0.000
  2 -0.871 -0.000  0.055 -0.000  0.000  0.000  0.000  0.000  0.000
 
band   2 # energy    0.89374192 # occ.  0.00000000
 
ion      s     py     pz     px    dxy    dyz    dz2    dxz    dx2    tot
  1  0.000  0.000  0.000  0.010  0.000  0.000  0.000  0.000  0.000  0.010
  2  0.000  0.000  0.000  0.010  0.000  0.000  0.000  0.000  0.000  0.010
tot  0.000  0.000  0.000  0.020  0.000  0.000  0.000  0.000  0.000  0.020
ion      s     py     pz     px    dxy    dyz    dz2    dxz    dx2
  1 -0.000 -0.000 -0.000  0.127  0.000  0.000  0.000  0.000  0.000
  1 -0.000  0.000  0.000 -0.031  0.000  0.000  0.000  0.000  0.000
  2  0.000 -0.000  0.000  0.127  0.000  0.000  0.000  0.000  0.000
  2  0.000  0.000  0.000 -0.031  0.000  0.000  0.000  0.000  0.000
 
band   3 # energy    6.46400693 # occ.  0.00000000
 
ion      s     py     pz     px    dxy    dyz    dz2    dxz    dx2    tot
  1  0.239  0.000  0.014  0.000  0.000  0.000  0.000  0.000  0.000  0.252
  2  0.239  0.000  0.014  0.000  0.000  0.000  0.000  0.000  0.000  0.252
tot  0.477  0.000  0.027  0.000  0.000  0.000  0.000  0.000  0.000  0.504
ion      s     py     pz     px    dxy    dyz    dz2    dxz    dx2
  1 -0.277  0.000  0.063  0.000  0.000  0.000  0.000  0.000  0.000
  1  0.604 -0.000 -0.137 -0.000  0.000  0.000  0.000  0.000  0.000
  2  0.277  0.000  0.063 -0.000  0.000  0.000  0.000  0.000  0.000
  2 -0.604 -0.000 -0.137  0.000  0.000  0.000  0.000  0.000  0.000
 
band   4 # energy    9.86921579 # occ.  0.00000000
 
ion      s     py     pz     px    dxy    dyz    dz2    dxz    dx2    tot
  1  0.084  0.000  0.023  0.000  0.000  0.000  0.000  0.000  0.000  0.107
  2  0.084  0.000  0.023  0.000  0.000  0.000  0.000  0.000  0.000  0.107
tot  0.168  0.000  0.045  0.000  0.000  0.000  0.000  0.000  0.000  0.213
ion      s     py     pz     px    dxy    dyz    dz2    dxz    dx2
  1 -0.155 -0.000 -0.087 -0.000  0.000  0.000  0.000  0.000  0.000
  1  0.311  0.000  0.175  0.000  0.000  0.000  0.000  0.000  0.000
  2 -0.155 -0.000  0.087  0.000  0.000  0.000  0.000  0.000  0.000
  2  0.311  0.000 -0.175 -0.000  0.000  0.000  0.000  0.000  0.000
 
band   5 # energy   13.69478173 # occ.  0.00000000
 
ion      s     py     pz     px    dxy    dyz    dz2    dxz    dx2    tot
  1  0.000  0.058  0.000  0.000  0.000  0.000  0.000  0.000  0.000  0.058
  2  0.000  0.058  0.000  0.000  0.000  0.000  0.000  0.000  0.000  0.058
tot  0.000  0.117  0.000  0.000  0.000  0.000  0.000  0.000  0.000  0.117
ion      s     py     pz     px    dxy    dyz    dz2    dxz    dx2
  1 -0.000 -0.129  0.000  0.000  0.000  0.000  0.000  0.000  0.000
  1  0.000  0.286 -0.000 -0.000  0.000  0.000  0.000  0.000  0.000
  2 -0.000 -0.129 -0.000 -0.000  0.000  0.000  0.000  0.000  0.000
  2  0.000  0.286  0.000  0.000  0.000  0.000  0.000  0.000  0.000
 

 k-point    3 :    0.00000000 0.50000000 0.00000000     weight = 0.12500000

band   1 # energy   -8.59505849 # occ.  2.00000000
 
ion      s     py     pz     px    dxy    dyz    dz2    dxz    dx2    tot
  1  0.230  0.000  0.002  0.000  0.000  0.000  0.000  0.000  0.000  0.232
  2  0.230  0.000  0.002  0.000  0.000  0.000  0.000  0.000  0.000  0.232
tot  0.460  0.000  0.004  0.000  0.000  0.000  0.000  0.000  0.000  0.465
ion      s     py     pz     px    dxy    dyz    dz2    dxz    dx2
  1 -0.031  0.000 -0.002  0.000  0.000  0.000  0.000  0.000  0.000
  1 -0.965 -0.000 -0.061 -0.000  0.000  0.000  0.000  0.000  0.000
  2 -0.031  0.000  0.002  0.000  0.000  0.000  0.000  0.000  0.000
  2 -0.965 -0.000  0.061 -0.000  0.000  0.000  0.000  0.000  0.000
 
band   2 # energy    0.89374193 # occ.  0.00000000
 
ion      s     py     pz     px    dxy    dyz    dz2    dxz    dx2    tot
  1  0.000  0.010  0.000  0.000  0.000  0.000  0.000  0.000  0.000  0.010
  2  0.000  0.010  0.000  0.000  0.000  0.000  0.000  0.000  0.000  0.010
tot  0.000  0.020  0.000  0.000  0.000  0.000  0.000  0.000  0.000  0.020
ion      s     py     pz     px    dxy    dyz    dz2    dxz    dx2
  1  0.000 -0.015 -0.000 -0.000  0.000  0.000  0.000  0.000  0.000
  1  0.000 -0.130 -0.000  0.000  0.000  0.000  0.000  0.000  0.000
  2 -0.000 -0.015  0.000 -0.000  0.000  0.000  0.000  0.000  0.000
  2 -0.000 -0.130 -0.000  0.000  0.000  0.000  0.000  0.000  0.000
 
band   3 # energy    6.46400693 # occ.  0.00000000
 
ion      s     py     pz     px    dxy    dyz    dz2    dxz    dx2    tot
  1  0.239  0.000  0.014  0.000  0.000  0.000  0.000  0.000  0.000  0.252
  2  0.239  0.000  0.014  0.000  0.000  0.000  0.000  0.000  0.000  0.252
tot  0.477  0.000  0.027  0.000  0.000  0.000  0.000  0.000  0.000  0.504
ion      s     py     pz     px    dxy    dyz    dz2    dxz    dx2
  1  0.226  0.000 -0.051  0.000  0.000  0.000  0.000  0.000  0.000
  1 -0.625 -0.000  0.142 -0.000  0.000  0.000  0.000  0.000  0.000
  2 -0.226 -0.000 -0.051 -0.000  0.000  0.000  0.000  0.000  0.000
  2  0.625  0.000  0.142  0.000  0.000  0.000  0.000  0.000  0.000
 
band   4 # energy    9.86921575 # occ.  0.00000000
 
ion      s     py     pz     px    dxy    dyz    dz2    dxz    dx2    tot
  1  0.084  0.000  0.023  0.000  0.000  0.000  0.000  0.000  0.000  0.107
  2  0.084  0.000  0.023  0.000  0.000  0.000  0.000  0.000  0.000  0.107
tot  0.168  0.000  0.045  0.000  0.000  0.000  0.000  0.000  0.000  0.213
ion      s     py     pz     px    dxy    dyz    dz2    dxz    dx2
  1 -0.011  0.000 -0.006 -0.000  0.000  0.000  0.000  0.000  0.000
  1 -0.348  0.000 -0.195  0.000  0.000  0.000  0.000  0.000  0.000
  2 -0.011 -0.000  0.006 -0.000  0.000  0.000  0.000  0.000  0.000
  2 -0.348 -0.000  0.195  0.000  0.000  0.000  0.000  0.000  0.000
 
band   5 # energy   13.69478178 # occ.  0.00000000
 
ion      s     py     pz     px    dxy    dyz    dz2    dxz    dx2    tot
  1  0.000  0.000  0.000  0.058  0.000  0.000  0.000  0.000  0.000  0.058
  2  0.000  0.000  0.000  0.058  0.000  0.000  0.000  0.000  0.000  0.058
tot  0.000  0.000  0.000  0.117  0.000  0.000  0.000  0.000  0.000  0.117
ion      s     py     pz     px    dxy    dyz    dz2    dxz    dx2
  1 -0.000 -0.000  0.000 -0.314  0.000  0.000  0.000  0.000  0.000
  1 -0.000 -0.000  0.000  0.001  0.000  0.000  0.000  0.000  0.000
  2 -0.000  0.000 -0.000 -0.314  0.000  0.000  0.000  0.000  0.000
  2 -0.000  0.000 -0.000  0.001  0.000  0.000  0.000  0.000  0.000
 

 k-point    4 :    0.50000000 0.50000000 0.00000000     weight = 0.12500000

band   1 # energy   -7.73883732 # occ.  2.00000000
 
ion      s     py     pz     px    dxy    dyz    dz2    dxz    dx2    tot
  1  0.259  0.000  0.002  0.000  0.000  0.000  0.000  0.000  0.000  0.261
  2  0.259  0.000  0.002  0.000  0.000  0.000  0.000  0.000  0.000  0.261
tot  0.518  0.000  0.005  0.000  0.000  0.000  0.000  0.000  0.000  0.523
ion      s     py     pz     px    dxy    dyz    dz2    dxz    dx2
  1 -0.245  0.000 -0.016 -0.000  0.000  0.000  0.000  0.000  0.000
  1  0.973 -0.000  0.063  0.000  0.000  0.000  0.000  0.000  0.000
  2 -0.245  0.000  0.016 -0.000  0.000  0.000  0.000  0.000  0.000
  2  0.973 -0.000 -0.063  0.000  0.000  0.000  0.000  0.000  0.000
 
band   2 # energy    3.98123187 # occ.  0.00000000
 
ion      s     py     pz     px    dxy    dyz    dz2    dxz    dx2    tot
  1  0.000  0.003  0.000  0.015  0.000  0.000  0.000  0.000  0.000  0.018
  2  0.000  0.003  0.000  0.015  0.000  0.000  0.000  0.000  0.000  0.018
tot  0.000  0.005  0.000  0.030  0.000  0.000  0.000  0.000  0.000  0.035
ion      s     py     pz     px    dxy    dyz    dz2    dxz    dx2
  1 -0.000 -0.001 -0.000  0.002  0.000  0.000  0.000  0.000  0.000
  1  0.000 -0.067  0.000  0.159  0.000  0.000  0.000  0.000  0.000
  2 -0.000 -0.001  0.000  0.002  0.000  0.000  0.000  0.000  0.000
  2 -0.000 -0.067 -0.000  0.159  0.000  0.000  0.000  0.000  0.000
 
band   3 # energy    3.98123191 # occ.  0.00000000
 
ion      s     py     pz     px    dxy    dyz    dz2    dxz    dx2    tot
  1  0.000  0.015  0.000  0.003  0.000  0.000  0.000  0.000  0.000  0.018
  2  0.000  0.015  0.000  0.003  0.000  0.000  0.000  0.000  0.000  0.018
tot  0.000  0.030  0.000  0.005  0.000  0.000  0.000  0.000  0.000  0.035
ion      s     py     pz     px    dxy    dyz    dz2    dxz    dx2
  1  0.000 -0.004 -0.000 -0.002  0.000  0.000  0.000  0.000  0.000
  1  0.000 -0.158  0.000 -0.067  0.000  0.000  0.000  0.000  0.000
  2 -0.000 -0.004  0.000 -0.002  0.000  0.000  0.000  0.000  0.000
  2 -0.000 -0.158 -0.000 -0.067  0.000  0.000  0.000  0.000  0.000
 
band   4 # energy    6.41119444 # occ.  0.00000000
 
ion      s     py     pz     px    dxy    dyz    dz2    dxz    dx2    tot
  1  0.000  0.000  0.000  0.000  0.000  0.000  0.000  0.000  0.000  0.000
  2  0.000  0.000  0.000  0.000  0.000  0.000  0.000  0.000  0.000  0.000
tot  0.000  0.000  0.000  0.000  0.000  0.000  0.000  0.000  0.000  0.000
ion      s     py     pz     px    dxy    dyz    dz2    dxz    dx2
  1 -0.000 -0.000 -0.000 -0.000  0.000  0.000  0.000  0.000  0.000
  1 -0.000 -0.000 -0.000 -0.000  0.000  0.000  0.000  0.000  0.000
  2 -0.000 -0.000  0.000 -0.000  0.000  0.000  0.000  0.000  0.000
  2 -0.000 -0.000  0.000 -0.000  0.000  0.000  0.000  0.000  0.000
 
band   5 # energy    7.19156626 # occ.  0.00000000
 
ion      s     py     pz     px    dxy    dyz    dz2    dxz    dx2    tot
  1  0.262  0.000  0.015  0.000  0.000  0.000  0.000  0.000  0.000  0.277
  2  0.262  0.000  0.015  0.000  0.000  0.000  0.000  0.000  0.000  0.277
tot  0.524  0.000  0.030  0.000  0.000  0.000  0.000  0.000  0.000  0.553
ion      s     py     pz     px    dxy    dyz    dz2    dxz    dx2
  1  0.027 -0.000 -0.006  0.000  0.000  0.000  0.000  0.000  0.000
  1  0.686  0.000 -0.158 -0.000  0.000  0.000  0.000  0.000  0.000
  2 -0.027  0.000 -0.006 -0.000  0.000  0.000  0.000  0.000  0.000
  2 -0.686 -0.000 -0.158  0.000  0.000  0.000  0.000  0.000  0.000
 

 k-point    5 :    0.00000000 0.00000000 0.50000000     weight = 0.12500000

band   1 # energy   -7.72530524 # occ.  2.00000000
 
ion      s     py     pz     px    dxy    dyz    dz2    dxz    dx2    tot
  1  0.232  0.000  0.005  0.000  0.000  0.000  0.000  0.000  0.000  0.238
  2  0.232  0.000  0.005  0.000  0.000  0.000  0.000  0.000  0.000  0.238
tot  0.464  0.000  0.011  0.000  0.000  0.000  0.000  0.000  0.000  0.475
ion      s     py     pz     px    dxy    dyz    dz2    dxz    dx2
  1  0.941 -0.000  0.096  0.000  0.000  0.000  0.000  0.000  0.000
  1  0.107 -0.000  0.011 -0.000  0.000  0.000  0.000  0.000  0.000
  2  0.563 -0.000 -0.057  0.000  0.000  0.000  0.000  0.000  0.000
  2 -0.761  0.000  0.077 -0.000  0.000  0.000  0.000  0.000  0.000
 
band   2 # energy   -2.38572906 # occ.  0.00000000
 
ion      s     py     pz     px    dxy    dyz    dz2    dxz    dx2    tot
  1  0.092  0.000  0.009  0.000  0.000  0.000  0.000  0.000  0.000  0.101
  2  0.092  0.000  0.009  0.000  0.000  0.000  0.000  0.000  0.000  0.101
tot  0.183  0.000  0.018  0.000  0.000  0.000  0.000  0.000  0.000  0.201
ion      s     py     pz     px    dxy    dyz    dz2    dxz    dx2
  1 -0.513 -0.000  0.119  0.000  0.000  0.000  0.000  0.000  0.000
  1 -0.155 -0.000  0.036 -0.000  0.000  0.000  0.000  0.000  0.000
  2  0.391 -0.000  0.090 -0.000  0.000  0.000  0.000  0.000  0.000
  2 -0.367  0.000 -0.085 -0.000  0.000  0.000  0.000  0.000  0.000
 
band   3 # energy    9.27796353 # occ.  0.00000000
 
ion      s     py     pz     px    dxy    dyz    dz2    dxz    dx2    tot
  1  0.099  0.000  0.004  0.000  0.000  0.000  0.000  0.000  0.000  0.102
  2  0.099  0.000  0.004  0.000  0.000  0.000  0.000  0.000  0.000  0.102
tot  0.198  0.000  0.007  0.000  0.000  0.000  0.000  0.000  0.000  0.205
ion      s     py     pz     px    dxy    dyz    dz2    dxz    dx2
  1  0.377  0.000  0.077  0.000  0.000  0.000  0.000  0.000  0.000
  1  0.045  0.000  0.009  0.000  0.000  0.000  0.000  0.000  0.000
  2  0.228  0.000 -0.046  0.000  0.000  0.000  0.000  0.000  0.000
  2 -0.304 -0.000  0.062  0.000  0.000  0.000  0.000  0.000  0.000
 
band   4 # energy   12.08042863 # occ.  0.00000000
 
ion      s     py     pz     px    dxy    dyz    dz2    dxz    dx2    tot
  1  0.121  0.000  0.010  0.000  0.000  0.000  0.000  0.000  0.000  0.130
  2  0.121  0.000  0.010  0.000  0.000  0.000  0.000  0.000  0.000  0.130
tot  0.241  0.000  0.020  0.000  0.000  0.000  0.000  0.000  0.000  0.261
ion      s     py     pz     px    dxy    dyz    dz2    dxz    dx2
  1  0.353  0.000 -0.118 -0.000  0.000  0.000  0.000  0.000  0.000
  1 -0.148 -0.000  0.050  0.000  0.000  0.000  0.000  0.000  0.000
  2 -0.048  0.000 -0.016  0.000  0.000  0.000  0.000  0.000  0.000
  2  0.379 -0.000  0.127  0.000  0.000  0.000  0.000  0.000  0.000
 
band   5 # energy   14.46584437 # occ.  0.00000000
 
ion      s     py     pz     px    dxy    dyz    dz2    dxz    dx2    tot
  1  0.000  0.001  0.000  0.055  0.000  0.000  0.000  0.000  0.000  0.055
  2  0.000  0.001  0.000  0.055  0.000  0.000  0.000  0.000  0.000  0.055
tot  0.000  0.001  0.000  0.109  0.000  0.000  0.000  0.000  0.000  0.110
ion      s     py     pz     px    dxy    dyz    dz2    dxz    dx2
  1 -0.000  0.016 -0.000  0.242  0.000  0.000  0.000  0.000  0.000
  1 -0.000  0.025 -0.000 -0.183  0.000  0.000  0.000  0.000  0.000
  2  0.000  0.030  0.000 -0.037  0.000  0.000  0.000  0.000  0.000
  2 -0.000 -0.001  0.000 -0.301  0.000  0.000  0.000  0.000  0.000
 

 k-point    6 :    0.50000000 0.00000000 0.50000000     weight = 0.12500000

band   1 # energy   -6.85775086 # occ.  2.00000000
 
ion      s     py     pz     px    dxy    dyz    dz2    dxz    dx2    tot
  1  0.263  0.000  0.006  0.000  0.000  0.000  0.000  0.000  0.000  0.269
  2  0.263  0.000  0.006  0.000  0.000  0.000  0.000  0.000  0.000  0.269
tot  0.526  0.000  0.012  0.000  0.000  0.000  0.000  0.000  0.000  0.538
ion      s     py     pz     px    dxy    dyz    dz2    dxz    dx2
  1 -0.984  0.000 -0.099 -0.000  0.000  0.000  0.000  0.000  0.000
  1  0.144  0.000  0.014 -0.000  0.000  0.000  0.000  0.000  0.000
  2 -0.368  0.000  0.037 -0.000  0.000  0.000  0.000  0.000  0.000
  2  0.924 -0.000 -0.093  0.000  0.000  0.000  0.000  0.000  0.000
 
band   2 # energy   -0.61625285 # occ.  0.00000000
 
ion      s     py     pz     px    dxy    dyz    dz2    dxz    dx2    tot
  1  0.125  0.000  0.012  0.000  0.000  0.000  0.000  0.000  0.000  0.137
  2  0.125  0.000  0.012  0.000  0.000  0.000  0.000  0.000  0.000  0.137
tot  0.250  0.000  0.024  0.000  0.000  0.000  0.000  0.000  0.000  0.274
ion      s     py     pz     px    dxy    dyz    dz2    dxz    dx2
  1  0.528 -0.000 -0.124  0.000  0.000  0.000  0.000  0.000  0.000
  1  0.283 -0.000 -0.067  0.000  0.000  0.000  0.000  0.000  0.000
  2 -0.509 -0.000 -0.120 -0.000  0.000  0.000  0.000  0.000  0.000
  2  0.316  0.000  0.074  0.000  0.000  0.000  0.000  0.000  0.000
 
band   3 # energy    4.53486612 # occ.  0.00000000
 
ion      s     py     pz     px    dxy    dyz    dz2    dxz    dx2    tot
  1  0.000  0.000  0.000  0.015  0.000  0.000  0.000  0.000  0.000  0.015
  2  0.000  0.000  0.000  0.015  0.000  0.000  0.000  0.000  0.000  0.015
tot  0.000  0.000  0.000  0.030  0.000  0.000  0.000  0.000  0.000  0.030
ion      s     py     pz     px    dxy    dyz    dz2    dxz    dx2
  1 -0.000  0.000 -0.000 -0.099  0.000  0.000  0.000  0.000  0.000
  1 -0.000 -0.000 -0.000  0.126  0.000  0.000  0.000  0.000  0.000
  2 -0.000 -0.000  0.000  0.060  0.000  0.000  0.000  0.000  0.000
  2  0.000 -0.000 -0.000  0.148  0.000  0.000  0.000  0.000  0.000
 
band   4 # energy    5.65689890 # occ.  0.00000000
 
ion      s     py     pz     px    dxy    dyz    dz2    dxz    dx2    tot
  1  0.000  0.000  0.000  0.005  0.000  0.000  0.000  0.000  0.000  0.005
  2  0.000  0.000  0.000  0.005  0.000  0.000  0.000  0.000  0.000  0.005
tot  0.000  0.000  0.000  0.010  0.000  0.000  0.000  0.000  0.000  0.010
ion      s     py     pz     px    dxy    dyz    dz2    dxz    dx2
  1  0.000  0.000  0.000 -0.079  0.000  0.000  0.000  0.000  0.000
  1  0.000  0.000 -0.000 -0.045  0.000  0.000  0.000  0.000  0.000
  2  0.000 -0.000 -0.000  0.078  0.000  0.000  0.000  0.000  0.000
  2 -0.000  0.000  0.000 -0.046  0.000  0.000  0.000  0.000  0.000
 
band   5 # energy   14.69429052 # occ.  0.00000000
 
ion      s     py     pz     px    dxy    dyz    dz2    dxz    dx2    tot
  1  0.072  0.000  0.003  0.000  0.000  0.000  0.000  0.000  0.000  0.075
  2  0.072  0.000  0.003  0.000  0.000  0.000  0.000  0.000  0.000  0.075
tot  0.144  0.000  0.006  0.000  0.000  0.000  0.000  0.000  0.000  0.150
ion      s     py     pz     px    dxy    dyz    dz2    dxz    dx2
  1  0.253  0.000  0.068 -0.000  0.000  0.000  0.000  0.000  0.000
  1 -0.019  0.000 -0.005 -0.000  0.000  0.000  0.000  0.000  0.000
  2  0.110  0.000 -0.030  0.000  0.000  0.000  0.000  0.000  0.000
  2 -0.229 -0.000  0.062 -0.000  0.000  0.000  0.000  0.000  0.000
 

 k-point    7 :    0.00000000 0.50000000 0.50000000     weight = 0.12500000

band   1 # energy   -6.85775087 # occ.  2.00000000
 
ion      s     py     pz     px    dxy    dyz    dz2    dxz    dx2    tot
  1  0.263  0.000  0.006  0.000  0.000  0.000  0.000  0.000  0.000  0.269
  2  0.263  0.000  0.006  0.000  0.000  0.000  0.000  0.000  0.000  0.269
tot  0.526  0.000  0.012  0.000  0.000  0.000  0.000  0.000  0.000  0.538
ion      s     py     pz     px    dxy    dyz    dz2    dxz    dx2
  1 -0.820  0.000 -0.082  0.000  0.000  0.000  0.000  0.000  0.000
  1 -0.563  0.000 -0.057 -0.000  0.000  0.000  0.000  0.000  0.000
  2 -0.898  0.000  0.090 -0.000  0.000  0.000  0.000  0.000  0.000
  2  0.429 -0.000 -0.043 -0.000  0.000  0.000  0.000  0.000  0.000
 
band   2 # energy   -0.61625286 # occ.  0.00000000
 
ion      s     py     pz     px    dxy    dyz    dz2    dxz    dx2    tot
  1  0.125  0.000  0.012  0.000  0.000  0.000  0.000  0.000  0.000  0.137
  2  0.125  0.000  0.012  0.000  0.000  0.000  0.000  0.000  0.000  0.137
tot  0.250  0.000  0.024  0.000  0.000  0.000  0.000  0.000  0.000  0.274
ion      s     py     pz     px    dxy    dyz    dz2    dxz    dx2
  1  0.570 -0.000 -0.134  0.000  0.000  0.000  0.000  0.000  0.000
  1 -0.186  0.000  0.044  0.000  0.000  0.000  0.000  0.000  0.000
  2 -0.124 -0.000 -0.029  0.000  0.000  0.000  0.000  0.000  0.000
  2  0.586  0.000  0.138  0.000  0.000  0.000  0.000  0.000  0.000
 
band   3 # energy    4.53486613 # occ.  0.00000000
 
ion      s     py     pz     px    dxy    dyz    dz2    dxz    dx2    tot
  1  0.000  0.015  0.000  0.000  0.000  0.000  0.000  0.000  0.000  0.015
  2  0.000  0.015  0.000  0.000  0.000  0.000  0.000  0.000  0.000  0.015
tot  0.000  0.030  0.000  0.000  0.000  0.000  0.000  0.000  0.000  0.030
ion      s     py     pz     px    dxy    dyz    dz2    dxz    dx2
  1 -0.000 -0.159  0.000  0.000  0.000  0.000  0.000  0.000  0.000
  1 -0.000 -0.016  0.000 -0.000  0.000  0.000  0.000  0.000  0.000
  2  0.000 -0.093  0.000  0.000  0.000  0.000  0.000  0.000  0.000
  2 -0.000  0.130 -0.000 -0.000  0.000  0.000  0.000  0.000  0.000
 
band   4 # energy    5.65689892 # occ.  0.00000000
 
ion      s     py     pz     px    dxy    dyz    dz2    dxz    dx2    tot
  1  0.000  0.005  0.000  0.000  0.000  0.000  0.000  0.000  0.000  0.005
  2  0.000  0.005  0.000  0.000  0.000  0.000  0.000  0.000  0.000  0.005
tot  0.000  0.010  0.000  0.000  0.000  0.000  0.000  0.000  0.000  0.010
ion      s     py     pz     px    dxy    dyz    dz2    dxz    dx2
  1  0.000  0.004 -0.000 -0.000  0.000  0.000  0.000  0.000  0.000
  1 -0.000 -0.090 -0.000  0.000  0.000  0.000  0.000  0.000  0.000
  2 -0.000  0.076  0.000 -0.000  0.000  0.000  0.000  0.000  0.000
  2 -0.000  0.049  0.000 -0.000  0.000  0.000  0.000  0.000  0.000
 
band   5 # energy   14.69429050 # occ.  0.00000000
 
ion      s     py     pz     px    dxy    dyz    dz2    dxz    dx2    tot
  1  0.072  0.000  0.003  0.000  0.000  0.000  0.000  0.000  0.000  0.075
  2  0.072  0.000  0.003  0.000  0.000  0.000  0.000  0.000  0.000  0.075
tot  0.144  0.000  0.006  0.000  0.000  0.000  0.000  0.000  0.000  0.150
ion      s     py     pz     px    dxy    dyz    dz2    dxz    dx2
  1 -0.211 -0.000 -0.057 -0.000  0.000  0.000  0.000  0.000  0.000
  1 -0.141 -0.000 -0.038  0.000  0.000  0.000  0.000  0.000  0.000
  2 -0.228  0.000  0.061  0.000  0.000  0.000  0.000  0.000  0.000
  2  0.112 -0.000 -0.030  0.000  0.000  0.000  0.000  0.000  0.000
 

 k-point    8 :    0.50000000 0.50000000 0.50000000     weight = 0.12500000

band   1 # energy   -6.15484611 # occ.  2.00000000
 
ion      s     py     pz     px    dxy    dyz    dz2    dxz    dx2    tot
  1  0.287  0.000  0.007  0.000  0.000  0.000  0.000  0.000  0.000  0.294
  2  0.287  0.000  0.007  0.000  0.000  0.000  0.000  0.000  0.000  0.294
tot  0.574  0.000  0.014  0.000  0.000  0.000  0.000  0.000  0.000  0.587
ion      s     py     pz     px    dxy    dyz    dz2    dxz    dx2
  1  0.407 -0.000  0.042  0.000  0.000  0.000  0.000  0.000  0.000
  1  0.951 -0.000  0.099  0.000  0.000  0.000  0.000  0.000  0.000
  2  1.027 -0.000 -0.107  0.000  0.000  0.000  0.000  0.000  0.000
  2  0.123  0.000 -0.013 -0.000  0.000  0.000  0.000  0.000  0.000
 
band   2 # energy    0.77303826 # occ.  0.00000000
 
ion      s     py     pz     px    dxy    dyz    dz2    dxz    dx2    tot
  1  0.156  0.000  0.015  0.000  0.000  0.000  0.000  0.000  0.000  0.171
  2  0.156  0.000  0.015  0.000  0.000  0.000  0.000  0.000  0.000  0.171
tot  0.312  0.000  0.030  0.000  0.000  0.000  0.000  0.000  0.000  0.342
ion      s     py     pz     px    dxy    dyz    dz2    dxz    dx2
  1 -0.041 -0.000  0.010 -0.000  0.000  0.000  0.000  0.000  0.000
  1 -0.639 -0.000  0.158 -0.000  0.000  0.000  0.000  0.000  0.000
  2  0.574 -0.000  0.142  0.000  0.000  0.000  0.000  0.000  0.000
  2  0.284 -0.000  0.070 -0.000  0.000  0.000  0.000  0.000  0.000
 
band   3 # energy    7.46354750 # occ.  0.00000000
 
ion      s     py     pz     px    dxy    dyz    dz2    dxz    dx2    tot
  1  0.000  0.003  0.000  0.022  0.000  0.000  0.000  0.000  0.000  0.025
  2  0.000  0.003  0.000  0.022  0.000  0.000  0.000  0.000  0.000  0.025
tot  0.000  0.007  0.000  0.044  0.000  0.000  0.000  0.000  0.000  0.050
ion      s     py     pz     px    dxy    dyz    dz2    dxz    dx2
  1 -0.000 -0.065  0.000  0.165  0.000  0.000  0.000  0.000  0.000
  1 -0.000 -0.039  0.000  0.098  0.000  0.000  0.000  0.000  0.000
  2  0.000 -0.066  0.000  0.167  0.000  0.000  0.000  0.000  0.000
  2  0.000  0.037  0.000 -0.094  0.000  0.000  0.000  0.000  0.000
 
band   4 # energy    7.46354753 # occ.  0.00000000
 
ion      s     py     pz     px    dxy    dyz    dz2    dxz    dx2    tot
  1  0.000  0.022  0.000  0.003  0.000  0.000  0.000  0.000  0.000  0.025
  2  0.000  0.022  0.000  0.003  0.000  0.000  0.000  0.000  0.000  0.025
tot  0.000  0.044  0.000  0.007  0.000  0.000  0.000  0.000  0.000  0.050
ion      s     py     pz     px    dxy    dyz    dz2    dxz    dx2
  1 -0.000 -0.013 -0.000 -0.005  0.000  0.000  0.000  0.000  0.000
  1  0.000 -0.191 -0.000 -0.076  0.000  0.000  0.000  0.000  0.000
  2 -0.000 -0.172 -0.000 -0.068  0.000  0.000  0.000  0.000  0.000
  2 -0.000 -0.085 -0.000 -0.034  0.000  0.000  0.000  0.000  0.000
 
band   5 # energy    8.94529640 # occ.  0.00000000
 
ion      s     py     pz     px    dxy    dyz    dz2    dxz    dx2    tot
  1  0.000  0.007  0.000  0.002  0.000  0.000  0.000  0.000  0.000  0.009
  2  0.000  0.007  0.000  0.002  0.000  0.000  0.000  0.000  0.000  0.009
tot  0.000  0.013  0.000  0.004  0.000  0.000  0.000  0.000  0.000  0.018
ion      s     py     pz     px    dxy    dyz    dz2    dxz    dx2
  1  0.000 -0.065  0.000 -0.017  0.000  0.000  0.000  0.000  0.000
  1  0.000  0.084 -0.000 -0.056  0.000  0.000  0.000  0.000  0.000
  2  0.000 -0.041 -0.000  0.057  0.000  0.000  0.000  0.000  0.000
  2 -0.000 -0.098  0.000  0.013  0.000  0.000  0.000  0.000  0.000
 
