<?xml version="1.0" encoding="ISO-8859-1"?>
<modeling>
 <generator>
  <i name="program" type="string">vasp </i>
  <i name="version" type="string">5.4.1  </i>
  <i name="subversion" type="string">05Feb16 (build Mar 30 2017 12:50:32) complex                          parallel </i>
  <i name="platform" type="string">LinuxIFC </i>
  <i name="date" type="string">2018 01 11 </i>
  <i name="time" type="string">16:57:17 </i>
 </generator>
 <incar>
  <i type="string" name="SYSTEM"> Screening bandgap</i>
  <i type="int" name="ISTART">     1</i>
  <i type="string" name="PREC">normal</i>
  <i type="int" name="ISPIN">     1</i>
  <i name="EDIFF">      0.00010000</i>
  <i type="int" name="ISYM">     0</i>
  <i name="ENCUT">    300.00000000</i>
  <i type="logical" name="LREAL"> F  </i>
  <i type="int" name="ISMEAR">     0</i>
  <i name="SIGMA">      0.05000000</i>
  <i type="logical" name="LORBIT"> F  </i>
  <v type="int" name="KPOINT_BSE">    -1     0     0     0</v>
  <i type="string" name="GGA"> PE</i>
  <i type="logical" name="LWANNIER90_RUN"> T  </i>
 </incar>
 <kpoints>
  <generation param="Gamma">
   <v type="int" name="divisions">       2        2        2 </v>
   <v name="usershift">      0.00000000       0.00000000       0.00000000 </v>
   <v name="genvec1">      0.50000000       0.00000000       0.00000000 </v>
   <v name="genvec2">      0.00000000       0.50000000       0.00000000 </v>
   <v name="genvec3">      0.00000000       0.00000000       0.50000000 </v>
   <v name="shift">      0.00000000       0.00000000       0.00000000 </v>
  </generation>
  <varray name="kpointlist" >
   <v>       0.00000000       0.00000000       0.00000000 </v>
   <v>       0.50000000       0.00000000       0.00000000 </v>
   <v>       0.00000000       0.50000000       0.00000000 </v>
   <v>       0.50000000       0.50000000       0.00000000 </v>
   <v>       0.00000000       0.00000000       0.50000000 </v>
   <v>       0.50000000       0.00000000       0.50000000 </v>
   <v>       0.00000000       0.50000000       0.50000000 </v>
   <v>       0.50000000       0.50000000       0.50000000 </v>
  </varray>
  <varray name="weights" >
   <v>       0.12500000 </v>
   <v>       0.12500000 </v>
   <v>       0.12500000 </v>
   <v>       0.12500000 </v>
   <v>       0.12500000 </v>
   <v>       0.12500000 </v>
   <v>       0.12500000 </v>
   <v>       0.12500000 </v>
  </varray>
 </kpoints>
 <parameters>
  <separator name="general" >
   <i type="string" name="SYSTEM">Screening bandgap</i>
   <i type="logical" name="LCOMPAT"> F  </i>
  </separator>
  <separator name="electronic" >
   <i type="string" name="PREC">normal</i>
   <i name="ENMAX">    300.00000000</i>
   <i name="ENAUG">    400.00000000</i>
   <i name="EDIFF">      0.00010000</i>
   <i type="int" name="IALGO">    38</i>
   <i type="int" name="IWAVPR">    10</i>
   <i type="int" name="NBANDS">     5</i>
   <i name="NELECT">      2.00000000</i>
   <i type="int" name="TURBO">     0</i>
   <i type="int" name="IRESTART">     0</i>
   <i type="int" name="NREBOOT">     0</i>
   <i type="int" name="NMIN">     0</i>
   <i name="EREF">      0.00000000</i>
   <separator name="electronic smearing" >
    <i type="int" name="ISMEAR">     0</i>
    <i name="SIGMA">      0.05000000</i>
    <i name="KSPACING">      0.50000000</i>
    <i type="logical" name="KGAMMA"> T  </i>
   </separator>
   <separator name="electronic projectors" >
    <i type="logical" name="LREAL"> F  </i>
    <v name="ROPT">      0.00000000</v>
    <i type="int" name="LMAXPAW">  -100</i>
    <i type="int" name="LMAXMIX">     2</i>
    <i type="logical" name="NLSPLINE"> F  </i>
   </separator>
   <separator name="electronic startup" >
    <i type="int" name="ISTART">     1</i>
    <i type="int" name="ICHARG">     0</i>
    <i type="int" name="INIWAV">     1</i>
   </separator>
   <separator name="electronic spin" >
    <i type="int" name="ISPIN">     1</i>
    <i type="logical" name="LNONCOLLINEAR"> F  </i>
    <v name="MAGMOM">      1.00000000      1.00000000</v>
    <i name="NUPDOWN">     -1.00000000</i>
    <i type="logical" name="LSORBIT"> F  </i>
    <v name="SAXIS">      0.00000000      0.00000000      1.00000000</v>
    <i type="logical" name="LSPIRAL"> F  </i>
    <v name="QSPIRAL">      0.00000000      0.00000000      0.00000000</v>
    <i type="logical" name="LZEROZ"> F  </i>
   </separator>
   <separator name="electronic exchange-correlation" >
    <i type="logical" name="LASPH"> F  </i>
    <i type="logical" name="LMETAGGA"> F  </i>
   </separator>
   <separator name="electronic convergence" >
    <i type="int" name="NELM">    60</i>
    <i type="int" name="NELMDL">     0</i>
    <i type="int" name="NELMIN">     2</i>
    <i name="ENINI">    300.00000000</i>
    <separator name="electronic convergence detail" >
     <i type="logical" name="LDIAG"> T  </i>
     <i type="logical" name="LSUBROT"> F  </i>
     <i name="WEIMIN">      0.00000000</i>
     <i name="EBREAK">      0.00000500</i>
     <i name="DEPER">      0.30000000</i>
     <i type="int" name="NRMM">     4</i>
     <i name="TIME">      0.40000000</i>
    </separator>
   </separator>
   <separator name="electronic mixer" >
    <i name="AMIX">      0.40000000</i>
    <i name="BMIX">      1.00000000</i>
    <i name="AMIN">      0.10000000</i>
    <i name="AMIX_MAG">      1.60000000</i>
    <i name="BMIX_MAG">      1.00000000</i>
    <separator name="electronic mixer details" >
     <i type="int" name="IMIX">     4</i>
     <i type="logical" name="MIXFIRST"> F  </i>
     <i type="int" name="MAXMIX">   -45</i>
     <i name="WC">    100.00000000</i>
     <i type="int" name="INIMIX">     1</i>
     <i type="int" name="MIXPRE">     1</i>
     <i type="int" name="MREMOVE">     5</i>
    </separator>
   </separator>
   <separator name="electronic dipolcorrection" >
    <i type="logical" name="LDIPOL"> F  </i>
    <i type="logical" name="LMONO"> F  </i>
    <i type="int" name="IDIPOL">     0</i>
    <i name="EPSILON">      1.00000000</i>
    <v name="DIPOL">   -100.00000000   -100.00000000   -100.00000000</v>
    <i name="EFIELD">      0.00000000</i>
   </separator>
  </separator>
  <separator name="grids" >
   <i type="int" name="NGX">    14</i>
   <i type="int" name="NGY">    14</i>
   <i type="int" name="NGZ">    14</i>
   <i type="int" name="NGXF">    28</i>
   <i type="int" name="NGYF">    28</i>
   <i type="int" name="NGZF">    28</i>
   <i type="logical" name="ADDGRID"> F  </i>
  </separator>
  <separator name="ionic" >
   <i type="int" name="NSW">     0</i>
   <i type="int" name="IBRION">    -1</i>
   <i type="int" name="ISIF">     2</i>
   <i name="PSTRESS">      0.00000000</i>
   <i name="EDIFFG">      0.00100000</i>
   <i type="int" name="NFREE">     0</i>
   <i name="POTIM">      0.50000000</i>
   <i name="SMASS">     -3.00000000</i>
   <i name="SCALEE">      1.00000000</i>
  </separator>
  <separator name="ionic md" >
   <i name="TEBEG">      0.00010000</i>
   <i name="TEEND">      0.00010000</i>
   <i type="int" name="NBLOCK">     1</i>
   <i type="int" name="KBLOCK">     1</i>
   <i type="int" name="NPACO">   256</i>
   <i name="APACO">     16.00000000</i>
  </separator>
  <separator name="symmetry" >
   <i type="int" name="ISYM">     0</i>
   <i name="SYMPREC">      0.00001000</i>
  </separator>
  <separator name="dos" >
   <i type="logical" name="LORBIT"> F  </i>
   <v name="RWIGS">     -1.00000000</v>
   <i type="int" name="NEDOS">   301</i>
   <i name="EMIN">     10.00000000</i>
   <i name="EMAX">    -10.00000000</i>
   <i name="EFERMI">      0.00000000</i>
  </separator>
  <separator name="writing" >
   <i type="int" name="NWRITE">     2</i>
   <i type="logical" name="LWAVE"> T  </i>
   <i type="logical" name="LCHARG"> T  </i>
   <i type="logical" name="LPARD"> F  </i>
   <i type="logical" name="LVTOT"> F  </i>
   <i type="logical" name="LVHAR"> F  </i>
   <i type="logical" name="LELF"> F  </i>
   <i type="logical" name="LOPTICS"> F  </i>
   <v name="STM">      0.00000000      0.00000000      0.00000000      0.00000000      0.00000000      0.00000000      0.00000000</v>
  </separator>
  <separator name="performance" >
   <i type="int" name="NPAR">     1</i>
   <i type="int" name="NSIM">     4</i>
   <i type="int" name="NBLK">    -1</i>
   <i type="logical" name="LPLANE"> T  </i>
   <i type="logical" name="LSCALAPACK"> F  </i>
   <i type="logical" name="LSCAAWARE"> F  </i>
   <i type="logical" name="LSCALU"> F  </i>
   <i type="logical" name="LASYNC"> F  </i>
   <i type="logical" name="LORBITALREAL"> F  </i>
  </separator>
  <separator name="miscellaneous" >
   <i type="int" name="IDIOT">     3</i>
   <i type="logical" name="LMUSIC"> F  </i>
   <v name="POMASS">      1.00000000</v>
   <v name="DARWINR">      0.00000000</v>
   <v name="DARWINV">      1.00000000</v>
   <i type="logical" name="LCORR"> T  </i>
  </separator>
  <i type="logical" name="GGA_COMPAT"> T  </i>
  <i type="logical" name="LBERRY"> F  </i>
  <i type="int" name="ICORELEVEL">     0</i>
  <i type="logical" name="LDAU"> F  </i>
  <i type="int" name="I_CONSTRAINED_M">     0</i>
  <separator name="electronic exchange-correlation" >
   <i type="string" name="GGA">PE</i>
   <i type="int" name="VOSKOWN">     0</i>
   <i type="logical" name="LHFCALC"> F  </i>
   <i type="string" name="PRECFOCK"></i>
   <i type="logical" name="LSYMGRAD"> F  </i>
   <i type="logical" name="LHFONE"> F  </i>
   <i type="logical" name="LRHFCALC"> F  </i>
   <i type="logical" name="LTHOMAS"> F  </i>
   <i type="logical" name="LMODELHF"> F  </i>
   <i name="ENCUT4O">     -1.00000000</i>
   <i type="int" name="EXXOEP">     0</i>
   <i type="int" name="FOURORBIT">     0</i>
   <i name="AEXX">      0.00000000</i>
   <i name="HFALPHA">      0.00000000</i>
   <i name="MCALPHA">      0.00000000</i>
   <i name="ALDAX">      1.00000000</i>
   <i name="AGGAX">      1.00000000</i>
   <i name="ALDAC">      1.00000000</i>
   <i name="AGGAC">      1.00000000</i>
   <i type="int" name="NKREDX">     1</i>
   <i type="int" name="NKREDY">     1</i>
   <i type="int" name="NKREDZ">     1</i>
   <i type="logical" name="SHIFTRED"> F  </i>
   <i type="logical" name="ODDONLY"> F  </i>
   <i type="logical" name="EVENONLY"> F  </i>
   <i type="int" name="LMAXFOCK">     0</i>
   <i type="int" name="NMAXFOCKAE">     0</i>
   <i type="logical" name="LFOCKAEDFT"> F  </i>
   <i name="HFSCREEN">      0.00000000</i>
   <i name="HFSCREENC">      0.00000000</i>
   <i type="int" name="NBANDSGWLOW">     0</i>
  </separator>
  <separator name="vdW DFT" >
   <i type="logical" name="LUSE_VDW"> F  </i>
   <i name="Zab_VDW">     -0.84910000</i>
   <i name="PARAM1">      0.12340000</i>
   <i name="PARAM2">      1.00000000</i>
   <i name="PARAM3">      0.00000000</i>
  </separator>
  <separator name="model GW" >
   <i type="int" name="MODEL_GW">     0</i>
   <i name="MODEL_EPS0">      8.10000000</i>
   <i name="MODEL_ALPHA">      1.00000000</i>
  </separator>
  <separator name="linear response parameters" >
   <i type="logical" name="LEPSILON"> F  </i>
   <i type="logical" name="LRPA"> F  </i>
   <i type="logical" name="LNABLA"> F  </i>
   <i type="logical" name="LVEL"> F  </i>
   <i type="int" name="KINTER">     0</i>
   <i name="CSHIFT">      0.10000000</i>
   <i name="OMEGAMAX">     -1.00000000</i>
   <i name="DEG_THRESHOLD">      0.00200000</i>
  </separator>
  <separator name="orbital magnetization" >
   <i type="logical" name="NUCIND"> F  </i>
   <v name="MAGPOS">      0.00000000      0.00000000      0.00000000</v>
   <i type="logical" name="LNICSALL"> T  </i>
   <i type="logical" name="ORBITALMAG"> F  </i>
   <i type="logical" name="LMAGBLOCH"> F  </i>
   <i type="logical" name="LCHIMAG"> F  </i>
   <i type="logical" name="LGAUGE"> T  </i>
   <i type="int" name="MAGATOM">     0</i>
   <v name="MAGDIPOL">      0.00000000      0.00000000      0.00000000</v>
   <v name="AVECCONST">      0.00000000      0.00000000      0.00000000</v>
  </separator>
  <separator name="response functions" >
   <i type="logical" name="LADDER"> F  </i>
   <i type="logical" name="LFXC"> F  </i>
   <i type="logical" name="LHARTREE"> T  </i>
   <i type="int" name="IBSE">     0</i>
   <v type="int" name="KPOINT">    -1     0     0     0</v>
   <i type="logical" name="LTCTE"> F  </i>
   <i type="logical" name="LTETE"> F  </i>
   <i type="logical" name="LTRIPLET"> F  </i>
   <i type="logical" name="LFXCEPS"> F  </i>
   <i type="logical" name="LFXHEG"> F  </i>
   <i type="int" name="NATURALO">     0</i>
   <i type="logical" name="L2ORDER"> F  </i>
   <i type="logical" name="LUSEW"> F  </i>
   <i name="ENCUTGW">     -2.00000000</i>
   <i name="ENCUTGWSOFT">     -2.00000000</i>
   <i name="ENCUTLF">     -1.00000000</i>
   <i type="int" name="LMAXMP2">    -1</i>
   <i name="SCISSOR">      0.00000000</i>
   <i type="int" name="NOMEGA">     0</i>
   <i type="int" name="NOMEGAR">     0</i>
   <i type="int" name="NBANDSGW">    -1</i>
   <i type="int" name="NBANDSO">    -1</i>
   <i type="int" name="NBANDSV">    -1</i>
   <i type="int" name="NELM">     1</i>
   <i type="int" name="NELMHF">     1</i>
   <i type="int" name="DIM">     3</i>
   <i type="int" name="ANTIRES">     0</i>
   <i name="OMEGAMAX">    -30.00000000</i>
   <i name="OMEGAMIN">    -30.00000000</i>
   <i name="OMEGATL">   -200.00000000</i>
   <i type="int" name="OMEGAGRID">     0</i>
   <i name="CSHIFT">     -0.10000000</i>
   <i type="logical" name="SELFENERGY"> F  </i>
   <i type="logical" name="LSPECTRAL"> F  </i>
   <i type="logical" name="LSPECTRALGW"> F  </i>
   <i type="logical" name="LSINGLES"> F  </i>
   <i type="logical" name="LFERMIGW"> F  </i>
   <i type="logical" name="ODDONLYGW"> F  </i>
   <i type="logical" name="EVENONLYGW"> F  </i>
   <i type="int" name="NKREDLFX">     1</i>
   <i type="int" name="NKREDLFY">     1</i>
   <i type="int" name="NKREDLFZ">     1</i>
   <i type="int" name="MAXMEM">  1800</i>
   <i type="int" name="TELESCOPE">     0</i>
   <i type="int" name="TAUPAR">     1</i>
   <i type="int" name="OMEGAPAR">    -1</i>
   <i name="LAMBDA">      1.00000000</i>
  </separator>
  <separator name="External order field" >
   <i name="OFIELD_KAPPA">      0.00000000</i>
   <v name="OFIELD_K">      0.00000000      0.00000000      0.00000000</v>
   <i name="OFIELD_Q6_NEAR">      0.00000000</i>
   <i name="OFIELD_Q6_FAR">      0.00000000</i>
   <i name="OFIELD_A">      0.00000000</i>
  </separator>
 </parameters>
 <atominfo>
  <atoms>       2 </atoms>
  <types>       1 </types>
  <array name="atoms" >
   <dimension dim="1">ion</dimension>
   <field type="string">element</field>
   <field type="int">atomtype</field>
   <set>
    <rc><c>H </c><c>   1</c></rc>
    <rc><c>H </c><c>   1</c></rc>
   </set>
  </array>
  <array name="atomtypes" >
   <dimension dim="1">type</dimension>
   <field type="int">atomspertype</field>
   <field type="string">element</field>
   <field>mass</field>
   <field>valence</field>
   <field type="string">pseudopotential</field>
   <set>
    <rc><c>   2</c><c>H </c><c>      1.00000000</c><c>      1.00000000</c><c>  PAW_PBE H 15Jun2001                   </c></rc>
   </set>
  </array>
 </atominfo>
 <structure name="initialpos" >
  <crystal>
   <varray name="basis" >
    <v>       3.00000000       0.00000000       0.00000000 </v>
    <v>       0.00000000       3.00000000       0.00000000 </v>
    <v>       0.00000000       0.00000000       3.00000000 </v>
   </varray>
   <i name="volume">     27.00000000 </i>
   <varray name="rec_basis" >
    <v>       0.33333333       0.00000000       0.00000000 </v>
    <v>       0.00000000       0.33333333       0.00000000 </v>
    <v>       0.00000000       0.00000000       0.33333333 </v>
   </varray>
  </crystal>
  <varray name="positions" >
   <v>       0.50000000       0.50000000       0.33333333 </v>
   <v>       0.50000000       0.50000000       0.66666667 </v>
  </varray>
 </structure>
 <calculation>
  <scstep>
   <time name="dav">    0.01    0.02</time>
   <time name="total">    0.03    0.06</time>
   <energy>
    <i name="alphaZ">      0.36091370 </i>
    <i name="ewald">    -11.53041471 </i>
    <i name="hartreedc">     -8.88862951 </i>
    <i name="XCdc">      4.92052743 </i>
    <i name="pawpsdc">     15.27829377 </i>
    <i name="pawaedc">    -15.30730557 </i>
    <i name="eentropy">     -0.00000000 </i>
    <i name="bandstr">    -15.55337895 </i>
    <i name="atom">     24.89155077 </i>
    <i name="e_fr_energy">     -5.82844307 </i>
    <i name="e_wo_entrp">     -5.82844307 </i>
    <i name="e_0_energy">     -5.82844307 </i>
   </energy>
  </scstep>
  <scstep>
   <time name="dav">    0.01    0.02</time>
   <time name="total">    0.03    0.05</time>
   <energy>
    <i name="alphaZ">      0.36091370 </i>
    <i name="ewald">    -11.53041471 </i>
    <i name="hartreedc">     -8.88863313 </i>
    <i name="XCdc">      4.92052806 </i>
    <i name="pawpsdc">     15.27830091 </i>
    <i name="pawaedc">    -15.30731272 </i>
    <i name="eentropy">     -0.00000000 </i>
    <i name="bandstr">    -15.55337596 </i>
    <i name="atom">     24.89155077 </i>
    <i name="e_fr_energy">     -5.82844307 </i>
    <i name="e_wo_entrp">     -5.82844307 </i>
    <i name="e_0_energy">     -5.82844307 </i>
   </energy>
  </scstep>
  <structure>
   <crystal>
    <varray name="basis" >
     <v>       3.00000000       0.00000000       0.00000000 </v>
     <v>       0.00000000       3.00000000       0.00000000 </v>
     <v>       0.00000000       0.00000000       3.00000000 </v>
    </varray>
    <i name="volume">     27.00000000 </i>
    <varray name="rec_basis" >
     <v>       0.33333333       0.00000000       0.00000000 </v>
     <v>       0.00000000       0.33333333       0.00000000 </v>
     <v>       0.00000000       0.00000000       0.33333333 </v>
    </varray>
   </crystal>
   <varray name="positions" >
    <v>       0.50000000       0.50000000       0.33333333 </v>
    <v>       0.50000000       0.50000000       0.66666667 </v>
   </varray>
  </structure>
  <varray name="forces" >
   <v>      -0.00000001      -0.00000000       4.82458215 </v>
   <v>       0.00000001       0.00000000      -4.82458215 </v>
  </varray>
  <varray name="stress" >
   <v>       8.61644226       0.00000274      -0.00000046 </v>
   <v>       0.00000273       8.61644108      -0.00000078 </v>
   <v>      -0.00000046      -0.00000079    -218.24722124 </v>
  </varray>
  <energy>
   <i name="e_fr_energy">     -5.82844307 </i>
   <i name="e_wo_entrp">     -5.82844307 </i>
   <i name="e_0_energy">     -0.00000000 </i>
  </energy>
  <time name="totalsc">    0.30    0.71</time>
  <eigenvalues>
   <array>
    <dimension dim="1">band</dimension>
    <dimension dim="2">kpoint</dimension>
    <dimension dim="3">spin</dimension>
    <field>eigene</field>
    <field>occ</field>
    <set>
     <set comment="spin 1">
      <set comment="kpoint 1">
       <r>   -9.6889    1.0000 </r>
       <r>    5.2970    0.0000 </r>
       <r>    5.5722    0.0000 </r>
       <r>   11.2206    0.0000 </r>
       <r>   11.2206    0.0000 </r>
      </set>
      <set comment="kpoint 2">
       <r>   -8.5951    1.0000 </r>
       <r>    0.8937    0.0000 </r>
       <r>    6.4640    0.0000 </r>
       <r>    9.8692    0.0000 </r>
       <r>   13.6948    0.0000 </r>
      </set>
      <set comment="kpoint 3">
       <r>   -8.5951    1.0000 </r>
       <r>    0.8937    0.0000 </r>
       <r>    6.4640    0.0000 </r>
       <r>    9.8692    0.0000 </r>
       <r>   13.6948    0.0000 </r>
      </set>
      <set comment="kpoint 4">
       <r>   -7.7388    1.0000 </r>
       <r>    3.9812    0.0000 </r>
       <r>    3.9812    0.0000 </r>
       <r>    6.4112    0.0000 </r>
       <r>    7.1916    0.0000 </r>
      </set>
      <set comment="kpoint 5">
       <r>   -7.7253    1.0000 </r>
       <r>   -2.3857    0.0000 </r>
       <r>    9.2780    0.0000 </r>
       <r>   12.0804    0.0000 </r>
       <r>   14.4658    0.0000 </r>
      </set>
      <set comment="kpoint 6">
       <r>   -6.8578    1.0000 </r>
       <r>   -0.6163    0.0000 </r>
       <r>    4.5349    0.0000 </r>
       <r>    5.6569    0.0000 </r>
       <r>   14.6943    0.0000 </r>
      </set>
      <set comment="kpoint 7">
       <r>   -6.8578    1.0000 </r>
       <r>   -0.6163    0.0000 </r>
       <r>    4.5349    0.0000 </r>
       <r>    5.6569    0.0000 </r>
       <r>   14.6943    0.0000 </r>
      </set>
      <set comment="kpoint 8">
       <r>   -6.1548    1.0000 </r>
       <r>    0.7730    0.0000 </r>
       <r>    7.4635    0.0000 </r>
       <r>    7.4635    0.0000 </r>
       <r>    8.9453    0.0000 </r>
      </set>
     </set>
    </set>
   </array>
  </eigenvalues>
  <separator name="orbital magnetization" >
   <v name="MAGDIPOLOUT">      0.00000000      0.00000000      0.00000000</v>
  </separator>
  <dos>
   <i name="efermi">     -5.89578693 </i>
   <total>
    <array>
     <dimension dim="1">gridpoints</dimension>
     <dimension dim="2">spin</dimension>
     <field>energy</field>
     <field>total</field>
     <field>integrated</field>
     <set>
      <set comment="spin 1">
       <r>   -10.9081     0.0000     0.0000 </r>
       <r>   -10.8187     0.0000     0.0000 </r>
       <r>   -10.7292     0.0000     0.0000 </r>
       <r>   -10.6398     0.0000     0.0000 </r>
       <r>   -10.5504     0.0000     0.0000 </r>
       <r>   -10.4610     0.0000     0.0000 </r>
       <r>   -10.3716     0.0000     0.0000 </r>
       <r>   -10.2822     0.0000     0.0000 </r>
       <r>   -10.1928     0.0000     0.0000 </r>
       <r>   -10.1034     0.0000     0.0000 </r>
       <r>   -10.0140     0.0000     0.0000 </r>
       <r>    -9.9246     0.0000     0.0000 </r>
       <r>    -9.8352     0.0000     0.0000 </r>
       <r>    -9.7458     0.1503     0.0134 </r>
       <r>    -9.6564     2.1456     0.2053 </r>
       <r>    -9.5670     0.4995     0.2499 </r>
       <r>    -9.4776     0.0008     0.2500 </r>
       <r>    -9.3882     0.0000     0.2500 </r>
       <r>    -9.2988     0.0000     0.2500 </r>
       <r>    -9.2094     0.0000     0.2500 </r>
       <r>    -9.1200     0.0000     0.2500 </r>
       <r>    -9.0306     0.0000     0.2500 </r>
       <r>    -8.9411     0.0000     0.2500 </r>
       <r>    -8.8517     0.0000     0.2500 </r>
       <r>    -8.7623     0.0000     0.2500 </r>
       <r>    -8.6729     0.0772     0.2569 </r>
       <r>    -8.5835     3.4341     0.5639 </r>
       <r>    -8.4941     2.0691     0.7489 </r>
       <r>    -8.4047     0.0120     0.7500 </r>
       <r>    -8.3153     0.0000     0.7500 </r>
       <r>    -8.2259     0.0000     0.7500 </r>
       <r>    -8.1365     0.0000     0.7500 </r>
       <r>    -8.0471     0.0000     0.7500 </r>
       <r>    -7.9577     0.0000     0.7500 </r>
       <r>    -7.8683     0.0004     0.7500 </r>
       <r>    -7.7789     0.5408     0.7984 </r>
       <r>    -7.6895     4.3893     1.1908 </r>
       <r>    -7.6001     0.6614     1.2499 </r>
       <r>    -7.5107     0.0007     1.2500 </r>
       <r>    -7.4213     0.0000     1.2500 </r>
       <r>    -7.3319     0.0000     1.2500 </r>
       <r>    -7.2425     0.0000     1.2500 </r>
       <r>    -7.1530     0.0000     1.2500 </r>
       <r>    -7.0636     0.0000     1.2500 </r>
       <r>    -6.9742     0.0028     1.2502 </r>
       <r>    -6.8848     1.2380     1.3609 </r>
       <r>    -6.7954     4.1338     1.7305 </r>
       <r>    -6.7060     0.2179     1.7500 </r>
       <r>    -6.6166     0.0000     1.7500 </r>
       <r>    -6.5272     0.0000     1.7500 </r>
       <r>    -6.4378     0.0000     1.7500 </r>
       <r>    -6.3484     0.0000     1.7500 </r>
       <r>    -6.2590     0.0045     1.7504 </r>
       <r>    -6.1696     0.9416     1.8346 </r>
       <r>    -6.0802     1.8017     1.9957 </r>
       <r>    -5.9908     0.0485     2.0000 </r>
       <r>    -5.9014     0.0000     2.0000 </r>
       <r>    -5.8120     0.0000     2.0000 </r>
       <r>    -5.7226     0.0000     2.0000 </r>
       <r>    -5.6332     0.0000     2.0000 </r>
       <r>    -5.5438     0.0000     2.0000 </r>
       <r>    -5.4543     0.0000     2.0000 </r>
       <r>    -5.3649     0.0000     2.0000 </r>
       <r>    -5.2755     0.0000     2.0000 </r>
       <r>    -5.1861     0.0000     2.0000 </r>
       <r>    -5.0967     0.0000     2.0000 </r>
       <r>    -5.0073     0.0000     2.0000 </r>
       <r>    -4.9179     0.0000     2.0000 </r>
       <r>    -4.8285     0.0000     2.0000 </r>
       <r>    -4.7391     0.0000     2.0000 </r>
       <r>    -4.6497     0.0000     2.0000 </r>
       <r>    -4.5603     0.0000     2.0000 </r>
       <r>    -4.4709     0.0000     2.0000 </r>
       <r>    -4.3815     0.0000     2.0000 </r>
       <r>    -4.2921     0.0000     2.0000 </r>
       <r>    -4.2027     0.0000     2.0000 </r>
       <r>    -4.1133     0.0000     2.0000 </r>
       <r>    -4.0239     0.0000     2.0000 </r>
       <r>    -3.9345     0.0000     2.0000 </r>
       <r>    -3.8451     0.0000     2.0000 </r>
       <r>    -3.7557     0.0000     2.0000 </r>
       <r>    -3.6662     0.0000     2.0000 </r>
       <r>    -3.5768     0.0000     2.0000 </r>
       <r>    -3.4874     0.0000     2.0000 </r>
       <r>    -3.3980     0.0000     2.0000 </r>
       <r>    -3.3086     0.0000     2.0000 </r>
       <r>    -3.2192     0.0000     2.0000 </r>
       <r>    -3.1298     0.0000     2.0000 </r>
       <r>    -3.0404     0.0000     2.0000 </r>
       <r>    -2.9510     0.0000     2.0000 </r>
       <r>    -2.8616     0.0000     2.0000 </r>
       <r>    -2.7722     0.0000     2.0000 </r>
       <r>    -2.6828     0.0000     2.0000 </r>
       <r>    -2.5934     0.0000     2.0000 </r>
       <r>    -2.5040     0.0012     2.0001 </r>
       <r>    -2.4146     0.5784     2.0518 </r>
       <r>    -2.3252     2.0954     2.2392 </r>
       <r>    -2.2358     0.1213     2.2500 </r>
       <r>    -2.1464     0.0000     2.2500 </r>
       <r>    -2.0570     0.0000     2.2500 </r>
       <r>    -1.9676     0.0000     2.2500 </r>
       <r>    -1.8781     0.0000     2.2500 </r>
       <r>    -1.7887     0.0000     2.2500 </r>
       <r>    -1.6993     0.0000     2.2500 </r>
       <r>    -1.6099     0.0000     2.2500 </r>
       <r>    -1.5205     0.0000     2.2500 </r>
       <r>    -1.4311     0.0000     2.2500 </r>
       <r>    -1.3417     0.0000     2.2500 </r>
       <r>    -1.2523     0.0000     2.2500 </r>
       <r>    -1.1629     0.0000     2.2500 </r>
       <r>    -1.0735     0.0000     2.2500 </r>
       <r>    -0.9841     0.0000     2.2500 </r>
       <r>    -0.8947     0.0000     2.2500 </r>
       <r>    -0.8053     0.0000     2.2500 </r>
       <r>    -0.7159     0.0135     2.2512 </r>
       <r>    -0.6265     2.1463     2.4431 </r>
       <r>    -0.5371     3.3624     2.7437 </r>
       <r>    -0.4477     0.0702     2.7500 </r>
       <r>    -0.3583     0.0000     2.7500 </r>
       <r>    -0.2689     0.0000     2.7500 </r>
       <r>    -0.1795     0.0000     2.7500 </r>
       <r>    -0.0900     0.0000     2.7500 </r>
       <r>    -0.0006     0.0000     2.7500 </r>
       <r>     0.0888     0.0000     2.7500 </r>
       <r>     0.1782     0.0000     2.7500 </r>
       <r>     0.2676     0.0000     2.7500 </r>
       <r>     0.3570     0.0000     2.7500 </r>
       <r>     0.4464     0.0000     2.7500 </r>
       <r>     0.5358     0.0000     2.7500 </r>
       <r>     0.6252     0.0000     2.7500 </r>
       <r>     0.7146     0.1374     2.7623 </r>
       <r>     0.8040     2.1570     2.9551 </r>
       <r>     0.8934     3.2759     3.2480 </r>
       <r>     0.9828     2.7855     3.4971 </r>
       <r>     1.0722     0.0329     3.5000 </r>
       <r>     1.1616     0.0000     3.5000 </r>
       <r>     1.2510     0.0000     3.5000 </r>
       <r>     1.3404     0.0000     3.5000 </r>
       <r>     1.4298     0.0000     3.5000 </r>
       <r>     1.5192     0.0000     3.5000 </r>
       <r>     1.6086     0.0000     3.5000 </r>
       <r>     1.6981     0.0000     3.5000 </r>
       <r>     1.7875     0.0000     3.5000 </r>
       <r>     1.8769     0.0000     3.5000 </r>
       <r>     1.9663     0.0000     3.5000 </r>
       <r>     2.0557     0.0000     3.5000 </r>
       <r>     2.1451     0.0000     3.5000 </r>
       <r>     2.2345     0.0000     3.5000 </r>
       <r>     2.3239     0.0000     3.5000 </r>
       <r>     2.4133     0.0000     3.5000 </r>
       <r>     2.5027     0.0000     3.5000 </r>
       <r>     2.5921     0.0000     3.5000 </r>
       <r>     2.6815     0.0000     3.5000 </r>
       <r>     2.7709     0.0000     3.5000 </r>
       <r>     2.8603     0.0000     3.5000 </r>
       <r>     2.9497     0.0000     3.5000 </r>
       <r>     3.0391     0.0000     3.5000 </r>
       <r>     3.1285     0.0000     3.5000 </r>
       <r>     3.2179     0.0000     3.5000 </r>
       <r>     3.3073     0.0000     3.5000 </r>
       <r>     3.3967     0.0000     3.5000 </r>
       <r>     3.4862     0.0000     3.5000 </r>
       <r>     3.5756     0.0000     3.5000 </r>
       <r>     3.6650     0.0000     3.5000 </r>
       <r>     3.7544     0.0000     3.5000 </r>
       <r>     3.8438     0.0003     3.5000 </r>
       <r>     3.9332     0.4865     3.5435 </r>
       <r>     4.0226     4.4285     3.9395 </r>
       <r>     4.1120     0.6766     3.9999 </r>
       <r>     4.2014     0.0006     4.0000 </r>
       <r>     4.2908     0.0000     4.0000 </r>
       <r>     4.3802     0.0000     4.0000 </r>
       <r>     4.4696     0.1815     4.0162 </r>
       <r>     4.5590     4.0279     4.3763 </r>
       <r>     4.6484     1.3794     4.4997 </r>
       <r>     4.7378     0.0037     4.5000 </r>
       <r>     4.8272     0.0000     4.5000 </r>
       <r>     4.9166     0.0000     4.5000 </r>
       <r>     5.0060     0.0000     4.5000 </r>
       <r>     5.0954     0.0000     4.5000 </r>
       <r>     5.1848     0.0021     4.5002 </r>
       <r>     5.2743     0.7257     4.5651 </r>
       <r>     5.3637     1.9856     4.7426 </r>
       <r>     5.4531     0.0839     4.7501 </r>
       <r>     5.5425     0.5615     4.8003 </r>
       <r>     5.6319     3.4452     5.1083 </r>
       <r>     5.7213     4.1892     5.4828 </r>
       <r>     5.8107     0.1919     5.5000 </r>
       <r>     5.9001     0.0000     5.5000 </r>
       <r>     5.9895     0.0000     5.5000 </r>
       <r>     6.0789     0.0000     5.5000 </r>
       <r>     6.1683     0.0000     5.5000 </r>
       <r>     6.2577     0.0000     5.5000 </r>
       <r>     6.3471     0.1004     5.5090 </r>
       <r>     6.4365     3.2550     5.8000 </r>
       <r>     6.5259     4.8084     6.2299 </r>
       <r>     6.6153     0.2250     6.2500 </r>
       <r>     6.7047     0.0001     6.2500 </r>
       <r>     6.7941     0.0000     6.2500 </r>
       <r>     6.8835     0.0000     6.2500 </r>
       <r>     6.9729     0.0000     6.2500 </r>
       <r>     7.0624     0.0004     6.2500 </r>
       <r>     7.1518     0.3634     6.2825 </r>
       <r>     7.2412     2.2078     6.4799 </r>
       <r>     7.3306     0.2250     6.5000 </r>
       <r>     7.4200     0.6086     6.5544 </r>
       <r>     7.5094     4.4386     6.9513 </r>
       <r>     7.5988     0.5446     7.0000 </r>
       <r>     7.6882     0.0004     7.0000 </r>
       <r>     7.7776     0.0000     7.0000 </r>
       <r>     7.8670     0.0000     7.0000 </r>
       <r>     7.9564     0.0000     7.0000 </r>
       <r>     8.0458     0.0000     7.0000 </r>
       <r>     8.1352     0.0000     7.0000 </r>
       <r>     8.2246     0.0000     7.0000 </r>
       <r>     8.3140     0.0000     7.0000 </r>
       <r>     8.4034     0.0000     7.0000 </r>
       <r>     8.4928     0.0000     7.0000 </r>
       <r>     8.5822     0.0000     7.0000 </r>
       <r>     8.6716     0.0000     7.0000 </r>
       <r>     8.7610     0.0000     7.0000 </r>
       <r>     8.8505     0.0102     7.0009 </r>
       <r>     8.9399     1.2170     7.1097 </r>
       <r>     9.0293     1.5445     7.2478 </r>
       <r>     9.1187     0.0245     7.2500 </r>
       <r>     9.2081     0.0672     7.2560 </r>
       <r>     9.2975     1.9168     7.4274 </r>
       <r>     9.3869     0.8094     7.4997 </r>
       <r>     9.4763     0.0029     7.5000 </r>
       <r>     9.5657     0.0000     7.5000 </r>
       <r>     9.6551     0.0000     7.5000 </r>
       <r>     9.7445     0.0012     7.5001 </r>
       <r>     9.8339     0.8880     7.5795 </r>
       <r>     9.9233     4.3511     7.9685 </r>
       <r>    10.0127     0.3522     8.0000 </r>
       <r>    10.1021     0.0001     8.0000 </r>
       <r>    10.1915     0.0000     8.0000 </r>
       <r>    10.2809     0.0000     8.0000 </r>
       <r>    10.3703     0.0000     8.0000 </r>
       <r>    10.4597     0.0000     8.0000 </r>
       <r>    10.5491     0.0000     8.0000 </r>
       <r>    10.6386     0.0000     8.0000 </r>
       <r>    10.7280     0.0000     8.0000 </r>
       <r>    10.8174     0.0000     8.0000 </r>
       <r>    10.9068     0.0000     8.0000 </r>
       <r>    10.9962     0.0000     8.0000 </r>
       <r>    11.0856     0.0004     8.0000 </r>
       <r>    11.1750     0.5510     8.0493 </r>
       <r>    11.2644     4.4391     8.4462 </r>
       <r>    11.3538     0.6016     8.5000 </r>
       <r>    11.4432     0.0005     8.5000 </r>
       <r>    11.5326     0.0000     8.5000 </r>
       <r>    11.6220     0.0000     8.5000 </r>
       <r>    11.7114     0.0000     8.5000 </r>
       <r>    11.8008     0.0000     8.5000 </r>
       <r>    11.8902     0.0000     8.5000 </r>
       <r>    11.9796     0.0061     8.5005 </r>
       <r>    12.0690     1.0386     8.5934 </r>
       <r>    12.1584     1.7133     8.7466 </r>
       <r>    12.2478     0.0382     8.7500 </r>
       <r>    12.3372     0.0000     8.7500 </r>
       <r>    12.4267     0.0000     8.7500 </r>
       <r>    12.5161     0.0000     8.7500 </r>
       <r>    12.6055     0.0000     8.7500 </r>
       <r>    12.6949     0.0000     8.7500 </r>
       <r>    12.7843     0.0000     8.7500 </r>
       <r>    12.8737     0.0000     8.7500 </r>
       <r>    12.9631     0.0000     8.7500 </r>
       <r>    13.0525     0.0000     8.7500 </r>
       <r>    13.1419     0.0000     8.7500 </r>
       <r>    13.2313     0.0000     8.7500 </r>
       <r>    13.3207     0.0000     8.7500 </r>
       <r>    13.4101     0.0000     8.7500 </r>
       <r>    13.4995     0.0000     8.7500 </r>
       <r>    13.5889     0.0077     8.7507 </r>
       <r>    13.6783     1.7863     8.9104 </r>
       <r>    13.7677     3.6892     9.2402 </r>
       <r>    13.8571     0.1093     9.2500 </r>
       <r>    13.9465     0.0000     9.2500 </r>
       <r>    14.0359     0.0000     9.2500 </r>
       <r>    14.1253     0.0000     9.2500 </r>
       <r>    14.2148     0.0000     9.2500 </r>
       <r>    14.3042     0.0000     9.2500 </r>
       <r>    14.3936     0.0572     9.2551 </r>
       <r>    14.4830     1.8609     9.4215 </r>
       <r>    14.5724     0.8762     9.4998 </r>
       <r>    14.6618     1.0026     9.5895 </r>
       <r>    14.7512     4.2912     9.9731 </r>
       <r>    14.8406     0.3007    10.0000 </r>
       <r>    14.9300     0.0001    10.0000 </r>
       <r>    15.0194     0.0000    10.0000 </r>
       <r>    15.1088     0.0000    10.0000 </r>
       <r>    15.1982     0.0000    10.0000 </r>
       <r>    15.2876     0.0000    10.0000 </r>
       <r>    15.3770     0.0000    10.0000 </r>
       <r>    15.4664     0.0000    10.0000 </r>
       <r>    15.5558     0.0000    10.0000 </r>
       <r>    15.6452     0.0000    10.0000 </r>
       <r>    15.7346     0.0000    10.0000 </r>
       <r>    15.8240     0.0000    10.0000 </r>
       <r>    15.9134     0.0000    10.0000 </r>
      </set>
     </set>
    </array>
   </total>
   <partial>
    <array>
     <dimension dim="1">gridpoints</dimension>
     <dimension dim="2">spin</dimension>
     <dimension dim="3">ion</dimension>
     <field>energy</field>
     <field>  s</field>
     <field> py</field>
     <field> pz</field>
     <field> px</field>
     <field>dxy</field>
     <field>dyz</field>
     <field>dz2</field>
     <field>dxz</field>
     <field>dx2</field>
     <set>
      <set comment="ion 1">
       <set comment="spin 1">
        <r>   -10.9081     0.0000     0.0000     0.0000     0.0000     0.0000     0.0000     0.0000     0.0000     0.0000 </r>
        <r>   -10.8187     0.0000     0.0000     0.0000     0.0000     0.0000     0.0000     0.0000     0.0000     0.0000 </r>
        <r>   -10.7292     0.0000     0.0000     0.0000     0.0000     0.0000     0.0000     0.0000     0.0000     0.0000 </r>
        <r>   -10.6398     0.0000     0.0000     0.0000     0.0000     0.0000     0.0000     0.0000     0.0000     0.0000 </r>
        <r>   -10.5504     0.0000     0.0000     0.0000     0.0000     0.0000     0.0000     0.0000     0.0000     0.0000 </r>
        <r>   -10.4610     0.0000     0.0000     0.0000     0.0000     0.0000     0.0000     0.0000     0.0000     0.0000 </r>
        <r>   -10.3716     0.0000     0.0000     0.0000     0.0000     0.0000     0.0000     0.0000     0.0000     0.0000 </r>
        <r>   -10.2822     0.0000     0.0000     0.0000     0.0000     0.0000     0.0000     0.0000     0.0000     0.0000 </r>
        <r>   -10.1928     0.0000     0.0000     0.0000     0.0000     0.0000     0.0000     0.0000     0.0000     0.0000 </r>
        <r>   -10.1034     0.0000     0.0000     0.0000     0.0000     0.0000     0.0000     0.0000     0.0000     0.0000 </r>
        <r>   -10.0140     0.0000     0.0000     0.0000     0.0000     0.0000     0.0000     0.0000     0.0000     0.0000 </r>
        <r>    -9.9246     0.0000     0.0000     0.0000     0.0000     0.0000     0.0000     0.0000     0.0000     0.0000 </r>
        <r>    -9.8352     0.0000     0.0000     0.0000     0.0000     0.0000     0.0000     0.0000     0.0000     0.0000 </r>
        <r>    -9.7458     0.0291     0.0000     0.0002     0.0000     0.0000     0.0000     0.0000     0.0000     0.0000 </r>
        <r>    -9.6564     0.4151     0.0000     0.0033     0.0000     0.0000     0.0000     0.0000     0.0000     0.0000 </r>
        <r>    -9.5670     0.0966     0.0000     0.0008     0.0000     0.0000     0.0000     0.0000     0.0000     0.0000 </r>
        <r>    -9.4776     0.0002     0.0000     0.0000     0.0000     0.0000     0.0000     0.0000     0.0000     0.0000 </r>
        <r>    -9.3882     0.0000     0.0000     0.0000     0.0000     0.0000     0.0000     0.0000     0.0000     0.0000 </r>
        <r>    -9.2988     0.0000     0.0000     0.0000     0.0000     0.0000     0.0000     0.0000     0.0000     0.0000 </r>
        <r>    -9.2094     0.0000     0.0000     0.0000     0.0000     0.0000     0.0000     0.0000     0.0000     0.0000 </r>
        <r>    -9.1200     0.0000     0.0000     0.0000     0.0000     0.0000     0.0000     0.0000     0.0000     0.0000 </r>
        <r>    -9.0306     0.0000     0.0000     0.0000     0.0000     0.0000     0.0000     0.0000     0.0000     0.0000 </r>
        <r>    -8.9411     0.0000     0.0000     0.0000     0.0000     0.0000     0.0000     0.0000     0.0000     0.0000 </r>
        <r>    -8.8517     0.0000     0.0000     0.0000     0.0000     0.0000     0.0000     0.0000     0.0000     0.0000 </r>
        <r>    -8.7623     0.0000     0.0000     0.0000     0.0000     0.0000     0.0000     0.0000     0.0000     0.0000 </r>
        <r>    -8.6729     0.0178     0.0000     0.0002     0.0000     0.0000     0.0000     0.0000     0.0000     0.0000 </r>
        <r>    -8.5835     0.7906     0.0000     0.0075     0.0000     0.0000     0.0000     0.0000     0.0000     0.0000 </r>
        <r>    -8.4941     0.4763     0.0000     0.0045     0.0000     0.0000     0.0000     0.0000     0.0000     0.0000 </r>
        <r>    -8.4047     0.0028     0.0000     0.0000     0.0000     0.0000     0.0000     0.0000     0.0000     0.0000 </r>
        <r>    -8.3153     0.0000     0.0000     0.0000     0.0000     0.0000     0.0000     0.0000     0.0000     0.0000 </r>
        <r>    -8.2259     0.0000     0.0000     0.0000     0.0000     0.0000     0.0000     0.0000     0.0000     0.0000 </r>
        <r>    -8.1365     0.0000     0.0000     0.0000     0.0000     0.0000     0.0000     0.0000     0.0000     0.0000 </r>
        <r>    -8.0471     0.0000     0.0000     0.0000     0.0000     0.0000     0.0000     0.0000     0.0000     0.0000 </r>
        <r>    -7.9577     0.0000     0.0000     0.0000     0.0000     0.0000     0.0000     0.0000     0.0000     0.0000 </r>
        <r>    -7.8683     0.0001     0.0000     0.0000     0.0000     0.0000     0.0000     0.0000     0.0000     0.0000 </r>
        <r>    -7.7789     0.1351     0.0000     0.0019     0.0000     0.0000     0.0000     0.0000     0.0000     0.0000 </r>
        <r>    -7.6895     1.0780     0.0000     0.0175     0.0000     0.0000     0.0000     0.0000     0.0000     0.0000 </r>
        <r>    -7.6001     0.1596     0.0000     0.0030     0.0000     0.0000     0.0000     0.0000     0.0000     0.0000 </r>
        <r>    -7.5107     0.0002     0.0000     0.0000     0.0000     0.0000     0.0000     0.0000     0.0000     0.0000 </r>
        <r>    -7.4213     0.0000     0.0000     0.0000     0.0000     0.0000     0.0000     0.0000     0.0000     0.0000 </r>
        <r>    -7.3319     0.0000     0.0000     0.0000     0.0000     0.0000     0.0000     0.0000     0.0000     0.0000 </r>
        <r>    -7.2425     0.0000     0.0000     0.0000     0.0000     0.0000     0.0000     0.0000     0.0000     0.0000 </r>
        <r>    -7.1530     0.0000     0.0000     0.0000     0.0000     0.0000     0.0000     0.0000     0.0000     0.0000 </r>
        <r>    -7.0636     0.0000     0.0000     0.0000     0.0000     0.0000     0.0000     0.0000     0.0000     0.0000 </r>
        <r>    -6.9742     0.0007     0.0000     0.0000     0.0000     0.0000     0.0000     0.0000     0.0000     0.0000 </r>
        <r>    -6.8848     0.3254     0.0000     0.0074     0.0000     0.0000     0.0000     0.0000     0.0000     0.0000 </r>
        <r>    -6.7954     1.0867     0.0000     0.0245     0.0000     0.0000     0.0000     0.0000     0.0000     0.0000 </r>
        <r>    -6.7060     0.0573     0.0000     0.0013     0.0000     0.0000     0.0000     0.0000     0.0000     0.0000 </r>
        <r>    -6.6166     0.0000     0.0000     0.0000     0.0000     0.0000     0.0000     0.0000     0.0000     0.0000 </r>
        <r>    -6.5272     0.0000     0.0000     0.0000     0.0000     0.0000     0.0000     0.0000     0.0000     0.0000 </r>
        <r>    -6.4378     0.0000     0.0000     0.0000     0.0000     0.0000     0.0000     0.0000     0.0000     0.0000 </r>
        <r>    -6.3484     0.0000     0.0000     0.0000     0.0000     0.0000     0.0000     0.0000     0.0000     0.0000 </r>
        <r>    -6.2590     0.0013     0.0000     0.0000     0.0000     0.0000     0.0000     0.0000     0.0000     0.0000 </r>
        <r>    -6.1696     0.2701     0.0000     0.0065     0.0000     0.0000     0.0000     0.0000     0.0000     0.0000 </r>
        <r>    -6.0802     0.5168     0.0000     0.0124     0.0000     0.0000     0.0000     0.0000     0.0000     0.0000 </r>
        <r>    -5.9908     0.0139     0.0000     0.0003     0.0000     0.0000     0.0000     0.0000     0.0000     0.0000 </r>
        <r>    -5.9014     0.0000     0.0000     0.0000     0.0000     0.0000     0.0000     0.0000     0.0000     0.0000 </r>
        <r>    -5.8120     0.0000     0.0000     0.0000     0.0000     0.0000     0.0000     0.0000     0.0000     0.0000 </r>
        <r>    -5.7226     0.0000     0.0000     0.0000     0.0000     0.0000     0.0000     0.0000     0.0000     0.0000 </r>
        <r>    -5.6332     0.0000     0.0000     0.0000     0.0000     0.0000     0.0000     0.0000     0.0000     0.0000 </r>
        <r>    -5.5438     0.0000     0.0000     0.0000     0.0000     0.0000     0.0000     0.0000     0.0000     0.0000 </r>
        <r>    -5.4543     0.0000     0.0000     0.0000     0.0000     0.0000     0.0000     0.0000     0.0000     0.0000 </r>
        <r>    -5.3649     0.0000     0.0000     0.0000     0.0000     0.0000     0.0000     0.0000     0.0000     0.0000 </r>
        <r>    -5.2755     0.0000     0.0000     0.0000     0.0000     0.0000     0.0000     0.0000     0.0000     0.0000 </r>
        <r>    -5.1861     0.0000     0.0000     0.0000     0.0000     0.0000     0.0000     0.0000     0.0000     0.0000 </r>
        <r>    -5.0967     0.0000     0.0000     0.0000     0.0000     0.0000     0.0000     0.0000     0.0000     0.0000 </r>
        <r>    -5.0073     0.0000     0.0000     0.0000     0.0000     0.0000     0.0000     0.0000     0.0000     0.0000 </r>
        <r>    -4.9179     0.0000     0.0000     0.0000     0.0000     0.0000     0.0000     0.0000     0.0000     0.0000 </r>
        <r>    -4.8285     0.0000     0.0000     0.0000     0.0000     0.0000     0.0000     0.0000     0.0000     0.0000 </r>
        <r>    -4.7391     0.0000     0.0000     0.0000     0.0000     0.0000     0.0000     0.0000     0.0000     0.0000 </r>
        <r>    -4.6497     0.0000     0.0000     0.0000     0.0000     0.0000     0.0000     0.0000     0.0000     0.0000 </r>
        <r>    -4.5603     0.0000     0.0000     0.0000     0.0000     0.0000     0.0000     0.0000     0.0000     0.0000 </r>
        <r>    -4.4709     0.0000     0.0000     0.0000     0.0000     0.0000     0.0000     0.0000     0.0000     0.0000 </r>
        <r>    -4.3815     0.0000     0.0000     0.0000     0.0000     0.0000     0.0000     0.0000     0.0000     0.0000 </r>
        <r>    -4.2921     0.0000     0.0000     0.0000     0.0000     0.0000     0.0000     0.0000     0.0000     0.0000 </r>
        <r>    -4.2027     0.0000     0.0000     0.0000     0.0000     0.0000     0.0000     0.0000     0.0000     0.0000 </r>
        <r>    -4.1133     0.0000     0.0000     0.0000     0.0000     0.0000     0.0000     0.0000     0.0000     0.0000 </r>
        <r>    -4.0239     0.0000     0.0000     0.0000     0.0000     0.0000     0.0000     0.0000     0.0000     0.0000 </r>
        <r>    -3.9345     0.0000     0.0000     0.0000     0.0000     0.0000     0.0000     0.0000     0.0000     0.0000 </r>
        <r>    -3.8451     0.0000     0.0000     0.0000     0.0000     0.0000     0.0000     0.0000     0.0000     0.0000 </r>
        <r>    -3.7557     0.0000     0.0000     0.0000     0.0000     0.0000     0.0000     0.0000     0.0000     0.0000 </r>
        <r>    -3.6662     0.0000     0.0000     0.0000     0.0000     0.0000     0.0000     0.0000     0.0000     0.0000 </r>
        <r>    -3.5768     0.0000     0.0000     0.0000     0.0000     0.0000     0.0000     0.0000     0.0000     0.0000 </r>
        <r>    -3.4874     0.0000     0.0000     0.0000     0.0000     0.0000     0.0000     0.0000     0.0000     0.0000 </r>
        <r>    -3.3980     0.0000     0.0000     0.0000     0.0000     0.0000     0.0000     0.0000     0.0000     0.0000 </r>
        <r>    -3.3086     0.0000     0.0000     0.0000     0.0000     0.0000     0.0000     0.0000     0.0000     0.0000 </r>
        <r>    -3.2192     0.0000     0.0000     0.0000     0.0000     0.0000     0.0000     0.0000     0.0000     0.0000 </r>
        <r>    -3.1298     0.0000     0.0000     0.0000     0.0000     0.0000     0.0000     0.0000     0.0000     0.0000 </r>
        <r>    -3.0404     0.0000     0.0000     0.0000     0.0000     0.0000     0.0000     0.0000     0.0000     0.0000 </r>
        <r>    -2.9510     0.0000     0.0000     0.0000     0.0000     0.0000     0.0000     0.0000     0.0000     0.0000 </r>
        <r>    -2.8616     0.0000     0.0000     0.0000     0.0000     0.0000     0.0000     0.0000     0.0000     0.0000 </r>
        <r>    -2.7722     0.0000     0.0000     0.0000     0.0000     0.0000     0.0000     0.0000     0.0000     0.0000 </r>
        <r>    -2.6828     0.0000     0.0000     0.0000     0.0000     0.0000     0.0000     0.0000     0.0000     0.0000 </r>
        <r>    -2.5934     0.0000     0.0000     0.0000     0.0000     0.0000     0.0000     0.0000     0.0000     0.0000 </r>
        <r>    -2.5040     0.0001     0.0000     0.0000     0.0000     0.0000     0.0000     0.0000     0.0000     0.0000 </r>
        <r>    -2.4146     0.0530     0.0000     0.0053     0.0000     0.0000     0.0000     0.0000     0.0000     0.0000 </r>
        <r>    -2.3252     0.1919     0.0000     0.0191     0.0000     0.0000     0.0000     0.0000     0.0000     0.0000 </r>
        <r>    -2.2358     0.0111     0.0000     0.0011     0.0000     0.0000     0.0000     0.0000     0.0000     0.0000 </r>
        <r>    -2.1464     0.0000     0.0000     0.0000     0.0000     0.0000     0.0000     0.0000     0.0000     0.0000 </r>
        <r>    -2.0570     0.0000     0.0000     0.0000     0.0000     0.0000     0.0000     0.0000     0.0000     0.0000 </r>
        <r>    -1.9676     0.0000     0.0000     0.0000     0.0000     0.0000     0.0000     0.0000     0.0000     0.0000 </r>
        <r>    -1.8781     0.0000     0.0000     0.0000     0.0000     0.0000     0.0000     0.0000     0.0000     0.0000 </r>
        <r>    -1.7887     0.0000     0.0000     0.0000     0.0000     0.0000     0.0000     0.0000     0.0000     0.0000 </r>
        <r>    -1.6993     0.0000     0.0000     0.0000     0.0000     0.0000     0.0000     0.0000     0.0000     0.0000 </r>
        <r>    -1.6099     0.0000     0.0000     0.0000     0.0000     0.0000     0.0000     0.0000     0.0000     0.0000 </r>
        <r>    -1.5205     0.0000     0.0000     0.0000     0.0000     0.0000     0.0000     0.0000     0.0000     0.0000 </r>
        <r>    -1.4311     0.0000     0.0000     0.0000     0.0000     0.0000     0.0000     0.0000     0.0000     0.0000 </r>
        <r>    -1.3417     0.0000     0.0000     0.0000     0.0000     0.0000     0.0000     0.0000     0.0000     0.0000 </r>
        <r>    -1.2523     0.0000     0.0000     0.0000     0.0000     0.0000     0.0000     0.0000     0.0000     0.0000 </r>
        <r>    -1.1629     0.0000     0.0000     0.0000     0.0000     0.0000     0.0000     0.0000     0.0000     0.0000 </r>
        <r>    -1.0735     0.0000     0.0000     0.0000     0.0000     0.0000     0.0000     0.0000     0.0000     0.0000 </r>
        <r>    -0.9841     0.0000     0.0000     0.0000     0.0000     0.0000     0.0000     0.0000     0.0000     0.0000 </r>
        <r>    -0.8947     0.0000     0.0000     0.0000     0.0000     0.0000     0.0000     0.0000     0.0000     0.0000 </r>
        <r>    -0.8053     0.0000     0.0000     0.0000     0.0000     0.0000     0.0000     0.0000     0.0000     0.0000 </r>
        <r>    -0.7159     0.0017     0.0000     0.0002     0.0000     0.0000     0.0000     0.0000     0.0000     0.0000 </r>
        <r>    -0.6265     0.2688     0.0000     0.0254     0.0000     0.0000     0.0000     0.0000     0.0000     0.0000 </r>
        <r>    -0.5371     0.4210     0.0000     0.0398     0.0000     0.0000     0.0000     0.0000     0.0000     0.0000 </r>
        <r>    -0.4477     0.0088     0.0000     0.0008     0.0000     0.0000     0.0000     0.0000     0.0000     0.0000 </r>
        <r>    -0.3583     0.0000     0.0000     0.0000     0.0000     0.0000     0.0000     0.0000     0.0000     0.0000 </r>
        <r>    -0.2689     0.0000     0.0000     0.0000     0.0000     0.0000     0.0000     0.0000     0.0000     0.0000 </r>
        <r>    -0.1795     0.0000     0.0000     0.0000     0.0000     0.0000     0.0000     0.0000     0.0000     0.0000 </r>
        <r>    -0.0900     0.0000     0.0000     0.0000     0.0000     0.0000     0.0000     0.0000     0.0000     0.0000 </r>
        <r>    -0.0006     0.0000     0.0000     0.0000     0.0000     0.0000     0.0000     0.0000     0.0000     0.0000 </r>
        <r>     0.0888     0.0000     0.0000     0.0000     0.0000     0.0000     0.0000     0.0000     0.0000     0.0000 </r>
        <r>     0.1782     0.0000     0.0000     0.0000     0.0000     0.0000     0.0000     0.0000     0.0000     0.0000 </r>
        <r>     0.2676     0.0000     0.0000     0.0000     0.0000     0.0000     0.0000     0.0000     0.0000     0.0000 </r>
        <r>     0.3570     0.0000     0.0000     0.0000     0.0000     0.0000     0.0000     0.0000     0.0000     0.0000 </r>
        <r>     0.4464     0.0000     0.0000     0.0000     0.0000     0.0000     0.0000     0.0000     0.0000     0.0000 </r>
        <r>     0.5358     0.0000     0.0000     0.0000     0.0000     0.0000     0.0000     0.0000     0.0000     0.0000 </r>
        <r>     0.6252     0.0000     0.0000     0.0000     0.0000     0.0000     0.0000     0.0000     0.0000     0.0000 </r>
        <r>     0.7146     0.0214     0.0000     0.0020     0.0000     0.0000     0.0000     0.0000     0.0000     0.0000 </r>
        <r>     0.8040     0.3314     0.0002     0.0317     0.0002     0.0000     0.0000     0.0000     0.0000     0.0000 </r>
        <r>     0.8934     0.0829     0.0140     0.0079     0.0140     0.0000     0.0000     0.0000     0.0000     0.0000 </r>
        <r>     0.9828     0.0001     0.0142     0.0000     0.0142     0.0000     0.0000     0.0000     0.0000     0.0000 </r>
        <r>     1.0722     0.0000     0.0002     0.0000     0.0002     0.0000     0.0000     0.0000     0.0000     0.0000 </r>
        <r>     1.1616     0.0000     0.0000     0.0000     0.0000     0.0000     0.0000     0.0000     0.0000     0.0000 </r>
        <r>     1.2510     0.0000     0.0000     0.0000     0.0000     0.0000     0.0000     0.0000     0.0000     0.0000 </r>
        <r>     1.3404     0.0000     0.0000     0.0000     0.0000     0.0000     0.0000     0.0000     0.0000     0.0000 </r>
        <r>     1.4298     0.0000     0.0000     0.0000     0.0000     0.0000     0.0000     0.0000     0.0000     0.0000 </r>
        <r>     1.5192     0.0000     0.0000     0.0000     0.0000     0.0000     0.0000     0.0000     0.0000     0.0000 </r>
        <r>     1.6086     0.0000     0.0000     0.0000     0.0000     0.0000     0.0000     0.0000     0.0000     0.0000 </r>
        <r>     1.6981     0.0000     0.0000     0.0000     0.0000     0.0000     0.0000     0.0000     0.0000     0.0000 </r>
        <r>     1.7875     0.0000     0.0000     0.0000     0.0000     0.0000     0.0000     0.0000     0.0000     0.0000 </r>
        <r>     1.8769     0.0000     0.0000     0.0000     0.0000     0.0000     0.0000     0.0000     0.0000     0.0000 </r>
        <r>     1.9663     0.0000     0.0000     0.0000     0.0000     0.0000     0.0000     0.0000     0.0000     0.0000 </r>
        <r>     2.0557     0.0000     0.0000     0.0000     0.0000     0.0000     0.0000     0.0000     0.0000     0.0000 </r>
        <r>     2.1451     0.0000     0.0000     0.0000     0.0000     0.0000     0.0000     0.0000     0.0000     0.0000 </r>
        <r>     2.2345     0.0000     0.0000     0.0000     0.0000     0.0000     0.0000     0.0000     0.0000     0.0000 </r>
        <r>     2.3239     0.0000     0.0000     0.0000     0.0000     0.0000     0.0000     0.0000     0.0000     0.0000 </r>
        <r>     2.4133     0.0000     0.0000     0.0000     0.0000     0.0000     0.0000     0.0000     0.0000     0.0000 </r>
        <r>     2.5027     0.0000     0.0000     0.0000     0.0000     0.0000     0.0000     0.0000     0.0000     0.0000 </r>
        <r>     2.5921     0.0000     0.0000     0.0000     0.0000     0.0000     0.0000     0.0000     0.0000     0.0000 </r>
        <r>     2.6815     0.0000     0.0000     0.0000     0.0000     0.0000     0.0000     0.0000     0.0000     0.0000 </r>
        <r>     2.7709     0.0000     0.0000     0.0000     0.0000     0.0000     0.0000     0.0000     0.0000     0.0000 </r>
        <r>     2.8603     0.0000     0.0000     0.0000     0.0000     0.0000     0.0000     0.0000     0.0000     0.0000 </r>
        <r>     2.9497     0.0000     0.0000     0.0000     0.0000     0.0000     0.0000     0.0000     0.0000     0.0000 </r>
        <r>     3.0391     0.0000     0.0000     0.0000     0.0000     0.0000     0.0000     0.0000     0.0000     0.0000 </r>
        <r>     3.1285     0.0000     0.0000     0.0000     0.0000     0.0000     0.0000     0.0000     0.0000     0.0000 </r>
        <r>     3.2179     0.0000     0.0000     0.0000     0.0000     0.0000     0.0000     0.0000     0.0000     0.0000 </r>
        <r>     3.3073     0.0000     0.0000     0.0000     0.0000     0.0000     0.0000     0.0000     0.0000     0.0000 </r>
        <r>     3.3967     0.0000     0.0000     0.0000     0.0000     0.0000     0.0000     0.0000     0.0000     0.0000 </r>
        <r>     3.4862     0.0000     0.0000     0.0000     0.0000     0.0000     0.0000     0.0000     0.0000     0.0000 </r>
        <r>     3.5756     0.0000     0.0000     0.0000     0.0000     0.0000     0.0000     0.0000     0.0000     0.0000 </r>
        <r>     3.6650     0.0000     0.0000     0.0000     0.0000     0.0000     0.0000     0.0000     0.0000     0.0000 </r>
        <r>     3.7544     0.0000     0.0000     0.0000     0.0000     0.0000     0.0000     0.0000     0.0000     0.0000 </r>
        <r>     3.8438     0.0000     0.0000     0.0000     0.0000     0.0000     0.0000     0.0000     0.0000     0.0000 </r>
        <r>     3.9332     0.0000     0.0043     0.0000     0.0043     0.0000     0.0000     0.0000     0.0000     0.0000 </r>
        <r>     4.0226     0.0000     0.0389     0.0000     0.0389     0.0000     0.0000     0.0000     0.0000     0.0000 </r>
        <r>     4.1120     0.0000     0.0059     0.0000     0.0059     0.0000     0.0000     0.0000     0.0000     0.0000 </r>
        <r>     4.2014     0.0000     0.0000     0.0000     0.0000     0.0000     0.0000     0.0000     0.0000     0.0000 </r>
        <r>     4.2908     0.0000     0.0000     0.0000     0.0000     0.0000     0.0000     0.0000     0.0000     0.0000 </r>
        <r>     4.3802     0.0000     0.0000     0.0000     0.0000     0.0000     0.0000     0.0000     0.0000     0.0000 </r>
        <r>     4.4696     0.0000     0.0014     0.0000     0.0014     0.0000     0.0000     0.0000     0.0000     0.0000 </r>
        <r>     4.5590     0.0000     0.0307     0.0000     0.0307     0.0000     0.0000     0.0000     0.0000     0.0000 </r>
        <r>     4.6484     0.0000     0.0105     0.0000     0.0105     0.0000     0.0000     0.0000     0.0000     0.0000 </r>
        <r>     4.7378     0.0000     0.0000     0.0000     0.0000     0.0000     0.0000     0.0000     0.0000     0.0000 </r>
        <r>     4.8272     0.0000     0.0000     0.0000     0.0000     0.0000     0.0000     0.0000     0.0000     0.0000 </r>
        <r>     4.9166     0.0000     0.0000     0.0000     0.0000     0.0000     0.0000     0.0000     0.0000     0.0000 </r>
        <r>     5.0060     0.0000     0.0000     0.0000     0.0000     0.0000     0.0000     0.0000     0.0000     0.0000 </r>
        <r>     5.0954     0.0000     0.0000     0.0000     0.0000     0.0000     0.0000     0.0000     0.0000     0.0000 </r>
        <r>     5.1848     0.0002     0.0000     0.0000     0.0000     0.0000     0.0000     0.0000     0.0000     0.0000 </r>
        <r>     5.2743     0.0840     0.0000     0.0067     0.0000     0.0000     0.0000     0.0000     0.0000     0.0000 </r>
        <r>     5.3637     0.2298     0.0000     0.0182     0.0000     0.0000     0.0000     0.0000     0.0000     0.0000 </r>
        <r>     5.4531     0.0098     0.0000     0.0008     0.0000     0.0000     0.0000     0.0000     0.0000     0.0000 </r>
        <r>     5.5425     0.1162     0.0000     0.0062     0.0000     0.0000     0.0000     0.0000     0.0000     0.0000 </r>
        <r>     5.6319     0.4391     0.0033     0.0236     0.0033     0.0000     0.0000     0.0000     0.0000     0.0000 </r>
        <r>     5.7213     0.0267     0.0099     0.0014     0.0099     0.0000     0.0000     0.0000     0.0000     0.0000 </r>
        <r>     5.8107     0.0000     0.0005     0.0000     0.0005     0.0000     0.0000     0.0000     0.0000     0.0000 </r>
        <r>     5.9001     0.0000     0.0000     0.0000     0.0000     0.0000     0.0000     0.0000     0.0000     0.0000 </r>
        <r>     5.9895     0.0000     0.0000     0.0000     0.0000     0.0000     0.0000     0.0000     0.0000     0.0000 </r>
        <r>     6.0789     0.0000     0.0000     0.0000     0.0000     0.0000     0.0000     0.0000     0.0000     0.0000 </r>
        <r>     6.1683     0.0000     0.0000     0.0000     0.0000     0.0000     0.0000     0.0000     0.0000     0.0000 </r>
        <r>     6.2577     0.0000     0.0000     0.0000     0.0000     0.0000     0.0000     0.0000     0.0000     0.0000 </r>
        <r>     6.3471     0.0006     0.0000     0.0000     0.0000     0.0000     0.0000     0.0000     0.0000     0.0000 </r>
        <r>     6.4365     0.2908     0.0000     0.0165     0.0000     0.0000     0.0000     0.0000     0.0000     0.0000 </r>
        <r>     6.5259     0.9895     0.0000     0.0560     0.0000     0.0000     0.0000     0.0000     0.0000     0.0000 </r>
        <r>     6.6153     0.0533     0.0000     0.0030     0.0000     0.0000     0.0000     0.0000     0.0000     0.0000 </r>
        <r>     6.7047     0.0000     0.0000     0.0000     0.0000     0.0000     0.0000     0.0000     0.0000     0.0000 </r>
        <r>     6.7941     0.0000     0.0000     0.0000     0.0000     0.0000     0.0000     0.0000     0.0000     0.0000 </r>
        <r>     6.8835     0.0000     0.0000     0.0000     0.0000     0.0000     0.0000     0.0000     0.0000     0.0000 </r>
        <r>     6.9729     0.0000     0.0000     0.0000     0.0000     0.0000     0.0000     0.0000     0.0000     0.0000 </r>
        <r>     7.0624     0.0001     0.0000     0.0000     0.0000     0.0000     0.0000     0.0000     0.0000     0.0000 </r>
        <r>     7.1518     0.0952     0.0000     0.0054     0.0000     0.0000     0.0000     0.0000     0.0000     0.0000 </r>
        <r>     7.2412     0.5781     0.0000     0.0326     0.0000     0.0000     0.0000     0.0000     0.0000     0.0000 </r>
        <r>     7.3306     0.0588     0.0000     0.0033     0.0000     0.0000     0.0000     0.0000     0.0000     0.0000 </r>
        <r>     7.4200     0.0000     0.0077     0.0000     0.0077     0.0000     0.0000     0.0000     0.0000     0.0000 </r>
        <r>     7.5094     0.0000     0.0560     0.0000     0.0560     0.0000     0.0000     0.0000     0.0000     0.0000 </r>
        <r>     7.5988     0.0000     0.0069     0.0000     0.0069     0.0000     0.0000     0.0000     0.0000     0.0000 </r>
        <r>     7.6882     0.0000     0.0000     0.0000     0.0000     0.0000     0.0000     0.0000     0.0000     0.0000 </r>
        <r>     7.7776     0.0000     0.0000     0.0000     0.0000     0.0000     0.0000     0.0000     0.0000     0.0000 </r>
        <r>     7.8670     0.0000     0.0000     0.0000     0.0000     0.0000     0.0000     0.0000     0.0000     0.0000 </r>
        <r>     7.9564     0.0000     0.0000     0.0000     0.0000     0.0000     0.0000     0.0000     0.0000     0.0000 </r>
        <r>     8.0458     0.0000     0.0000     0.0000     0.0000     0.0000     0.0000     0.0000     0.0000     0.0000 </r>
        <r>     8.1352     0.0000     0.0000     0.0000     0.0000     0.0000     0.0000     0.0000     0.0000     0.0000 </r>
        <r>     8.2246     0.0000     0.0000     0.0000     0.0000     0.0000     0.0000     0.0000     0.0000     0.0000 </r>
        <r>     8.3140     0.0000     0.0000     0.0000     0.0000     0.0000     0.0000     0.0000     0.0000     0.0000 </r>
        <r>     8.4034     0.0000     0.0000     0.0000     0.0000     0.0000     0.0000     0.0000     0.0000     0.0000 </r>
        <r>     8.4928     0.0000     0.0000     0.0000     0.0000     0.0000     0.0000     0.0000     0.0000     0.0000 </r>
        <r>     8.5822     0.0000     0.0000     0.0000     0.0000     0.0000     0.0000     0.0000     0.0000     0.0000 </r>
        <r>     8.6716     0.0000     0.0000     0.0000     0.0000     0.0000     0.0000     0.0000     0.0000     0.0000 </r>
        <r>     8.7610     0.0000     0.0000     0.0000     0.0000     0.0000     0.0000     0.0000     0.0000     0.0000 </r>
        <r>     8.8505     0.0000     0.0001     0.0000     0.0000     0.0000     0.0000     0.0000     0.0000     0.0000 </r>
        <r>     8.9399     0.0000     0.0082     0.0000     0.0025     0.0000     0.0000     0.0000     0.0000     0.0000 </r>
        <r>     9.0293     0.0000     0.0104     0.0000     0.0032     0.0000     0.0000     0.0000     0.0000     0.0000 </r>
        <r>     9.1187     0.0000     0.0002     0.0000     0.0001     0.0000     0.0000     0.0000     0.0000     0.0000 </r>
        <r>     9.2081     0.0066     0.0000     0.0002     0.0000     0.0000     0.0000     0.0000     0.0000     0.0000 </r>
        <r>     9.2975     0.1896     0.0000     0.0068     0.0000     0.0000     0.0000     0.0000     0.0000     0.0000 </r>
        <r>     9.3869     0.0801     0.0000     0.0029     0.0000     0.0000     0.0000     0.0000     0.0000     0.0000 </r>
        <r>     9.4763     0.0003     0.0000     0.0000     0.0000     0.0000     0.0000     0.0000     0.0000     0.0000 </r>
        <r>     9.5657     0.0000     0.0000     0.0000     0.0000     0.0000     0.0000     0.0000     0.0000     0.0000 </r>
        <r>     9.6551     0.0000     0.0000     0.0000     0.0000     0.0000     0.0000     0.0000     0.0000     0.0000 </r>
        <r>     9.7445     0.0001     0.0000     0.0000     0.0000     0.0000     0.0000     0.0000     0.0000     0.0000 </r>
        <r>     9.8339     0.0745     0.0000     0.0202     0.0000     0.0000     0.0000     0.0000     0.0000     0.0000 </r>
        <r>     9.9233     0.3653     0.0000     0.0988     0.0000     0.0000     0.0000     0.0000     0.0000     0.0000 </r>
        <r>    10.0127     0.0296     0.0000     0.0080     0.0000     0.0000     0.0000     0.0000     0.0000     0.0000 </r>
        <r>    10.1021     0.0000     0.0000     0.0000     0.0000     0.0000     0.0000     0.0000     0.0000     0.0000 </r>
        <r>    10.1915     0.0000     0.0000     0.0000     0.0000     0.0000     0.0000     0.0000     0.0000     0.0000 </r>
        <r>    10.2809     0.0000     0.0000     0.0000     0.0000     0.0000     0.0000     0.0000     0.0000     0.0000 </r>
        <r>    10.3703     0.0000     0.0000     0.0000     0.0000     0.0000     0.0000     0.0000     0.0000     0.0000 </r>
        <r>    10.4597     0.0000     0.0000     0.0000     0.0000     0.0000     0.0000     0.0000     0.0000     0.0000 </r>
        <r>    10.5491     0.0000     0.0000     0.0000     0.0000     0.0000     0.0000     0.0000     0.0000     0.0000 </r>
        <r>    10.6386     0.0000     0.0000     0.0000     0.0000     0.0000     0.0000     0.0000     0.0000     0.0000 </r>
        <r>    10.7280     0.0000     0.0000     0.0000     0.0000     0.0000     0.0000     0.0000     0.0000     0.0000 </r>
        <r>    10.8174     0.0000     0.0000     0.0000     0.0000     0.0000     0.0000     0.0000     0.0000     0.0000 </r>
        <r>    10.9068     0.0000     0.0000     0.0000     0.0000     0.0000     0.0000     0.0000     0.0000     0.0000 </r>
        <r>    10.9962     0.0000     0.0000     0.0000     0.0000     0.0000     0.0000     0.0000     0.0000     0.0000 </r>
        <r>    11.0856     0.0000     0.0000     0.0000     0.0000     0.0000     0.0000     0.0000     0.0000     0.0000 </r>
        <r>    11.1750     0.0000     0.0106     0.0000     0.0106     0.0000     0.0000     0.0000     0.0000     0.0000 </r>
        <r>    11.2644     0.0000     0.0850     0.0000     0.0850     0.0000     0.0000     0.0000     0.0000     0.0000 </r>
        <r>    11.3538     0.0000     0.0115     0.0000     0.0115     0.0000     0.0000     0.0000     0.0000     0.0000 </r>
        <r>    11.4432     0.0000     0.0000     0.0000     0.0000     0.0000     0.0000     0.0000     0.0000     0.0000 </r>
        <r>    11.5326     0.0000     0.0000     0.0000     0.0000     0.0000     0.0000     0.0000     0.0000     0.0000 </r>
        <r>    11.6220     0.0000     0.0000     0.0000     0.0000     0.0000     0.0000     0.0000     0.0000     0.0000 </r>
        <r>    11.7114     0.0000     0.0000     0.0000     0.0000     0.0000     0.0000     0.0000     0.0000     0.0000 </r>
        <r>    11.8008     0.0000     0.0000     0.0000     0.0000     0.0000     0.0000     0.0000     0.0000     0.0000 </r>
        <r>    11.8902     0.0000     0.0000     0.0000     0.0000     0.0000     0.0000     0.0000     0.0000     0.0000 </r>
        <r>    11.9796     0.0007     0.0000     0.0001     0.0000     0.0000     0.0000     0.0000     0.0000     0.0000 </r>
        <r>    12.0690     0.1254     0.0000     0.0101     0.0000     0.0000     0.0000     0.0000     0.0000     0.0000 </r>
        <r>    12.1584     0.2069     0.0000     0.0167     0.0000     0.0000     0.0000     0.0000     0.0000     0.0000 </r>
        <r>    12.2478     0.0046     0.0000     0.0004     0.0000     0.0000     0.0000     0.0000     0.0000     0.0000 </r>
        <r>    12.3372     0.0000     0.0000     0.0000     0.0000     0.0000     0.0000     0.0000     0.0000     0.0000 </r>
        <r>    12.4267     0.0000     0.0000     0.0000     0.0000     0.0000     0.0000     0.0000     0.0000     0.0000 </r>
        <r>    12.5161     0.0000     0.0000     0.0000     0.0000     0.0000     0.0000     0.0000     0.0000     0.0000 </r>
        <r>    12.6055     0.0000     0.0000     0.0000     0.0000     0.0000     0.0000     0.0000     0.0000     0.0000 </r>
        <r>    12.6949     0.0000     0.0000     0.0000     0.0000     0.0000     0.0000     0.0000     0.0000     0.0000 </r>
        <r>    12.7843     0.0000     0.0000     0.0000     0.0000     0.0000     0.0000     0.0000     0.0000     0.0000 </r>
        <r>    12.8737     0.0000     0.0000     0.0000     0.0000     0.0000     0.0000     0.0000     0.0000     0.0000 </r>
        <r>    12.9631     0.0000     0.0000     0.0000     0.0000     0.0000     0.0000     0.0000     0.0000     0.0000 </r>
        <r>    13.0525     0.0000     0.0000     0.0000     0.0000     0.0000     0.0000     0.0000     0.0000     0.0000 </r>
        <r>    13.1419     0.0000     0.0000     0.0000     0.0000     0.0000     0.0000     0.0000     0.0000     0.0000 </r>
        <r>    13.2313     0.0000     0.0000     0.0000     0.0000     0.0000     0.0000     0.0000     0.0000     0.0000 </r>
        <r>    13.3207     0.0000     0.0000     0.0000     0.0000     0.0000     0.0000     0.0000     0.0000     0.0000 </r>
        <r>    13.4101     0.0000     0.0000     0.0000     0.0000     0.0000     0.0000     0.0000     0.0000     0.0000 </r>
        <r>    13.4995     0.0000     0.0000     0.0000     0.0000     0.0000     0.0000     0.0000     0.0000     0.0000 </r>
        <r>    13.5889     0.0000     0.0002     0.0000     0.0002     0.0000     0.0000     0.0000     0.0000     0.0000 </r>
        <r>    13.6783     0.0000     0.0522     0.0000     0.0522     0.0000     0.0000     0.0000     0.0000     0.0000 </r>
        <r>    13.7677     0.0000     0.1079     0.0000     0.1079     0.0000     0.0000     0.0000     0.0000     0.0000 </r>
        <r>    13.8571     0.0000     0.0032     0.0000     0.0032     0.0000     0.0000     0.0000     0.0000     0.0000 </r>
        <r>    13.9465     0.0000     0.0000     0.0000     0.0000     0.0000     0.0000     0.0000     0.0000     0.0000 </r>
        <r>    14.0359     0.0000     0.0000     0.0000     0.0000     0.0000     0.0000     0.0000     0.0000     0.0000 </r>
        <r>    14.1253     0.0000     0.0000     0.0000     0.0000     0.0000     0.0000     0.0000     0.0000     0.0000 </r>
        <r>    14.2148     0.0000     0.0000     0.0000     0.0000     0.0000     0.0000     0.0000     0.0000     0.0000 </r>
        <r>    14.3042     0.0000     0.0000     0.0000     0.0000     0.0000     0.0000     0.0000     0.0000     0.0000 </r>
        <r>    14.3936     0.0000     0.0000     0.0000     0.0031     0.0000     0.0000     0.0000     0.0000     0.0000 </r>
        <r>    14.4830     0.0000     0.0010     0.0000     0.1015     0.0000     0.0000     0.0000     0.0000     0.0000 </r>
        <r>    14.5724     0.0001     0.0005     0.0000     0.0477     0.0000     0.0000     0.0000     0.0000     0.0000 </r>
        <r>    14.6618     0.0721     0.0000     0.0028     0.0002     0.0000     0.0000     0.0000     0.0000     0.0000 </r>
        <r>    14.7512     0.3097     0.0000     0.0119     0.0000     0.0000     0.0000     0.0000     0.0000     0.0000 </r>
        <r>    14.8406     0.0217     0.0000     0.0008     0.0000     0.0000     0.0000     0.0000     0.0000     0.0000 </r>
        <r>    14.9300     0.0000     0.0000     0.0000     0.0000     0.0000     0.0000     0.0000     0.0000     0.0000 </r>
        <r>    15.0194     0.0000     0.0000     0.0000     0.0000     0.0000     0.0000     0.0000     0.0000     0.0000 </r>
        <r>    15.1088     0.0000     0.0000     0.0000     0.0000     0.0000     0.0000     0.0000     0.0000     0.0000 </r>
        <r>    15.1982     0.0000     0.0000     0.0000     0.0000     0.0000     0.0000     0.0000     0.0000     0.0000 </r>
        <r>    15.2876     0.0000     0.0000     0.0000     0.0000     0.0000     0.0000     0.0000     0.0000     0.0000 </r>
        <r>    15.3770     0.0000     0.0000     0.0000     0.0000     0.0000     0.0000     0.0000     0.0000     0.0000 </r>
        <r>    15.4664     0.0000     0.0000     0.0000     0.0000     0.0000     0.0000     0.0000     0.0000     0.0000 </r>
        <r>    15.5558     0.0000     0.0000     0.0000     0.0000     0.0000     0.0000     0.0000     0.0000     0.0000 </r>
        <r>    15.6452     0.0000     0.0000     0.0000     0.0000     0.0000     0.0000     0.0000     0.0000     0.0000 </r>
        <r>    15.7346     0.0000     0.0000     0.0000     0.0000     0.0000     0.0000     0.0000     0.0000     0.0000 </r>
        <r>    15.8240     0.0000     0.0000     0.0000     0.0000     0.0000     0.0000     0.0000     0.0000     0.0000 </r>
        <r>    15.9134     0.0000     0.0000     0.0000     0.0000     0.0000     0.0000     0.0000     0.0000     0.0000 </r>
       </set>
      </set>
      <set comment="ion 2">
       <set comment="spin 1">
        <r>   -10.9081     0.0000     0.0000     0.0000     0.0000     0.0000     0.0000     0.0000     0.0000     0.0000 </r>
        <r>   -10.8187     0.0000     0.0000     0.0000     0.0000     0.0000     0.0000     0.0000     0.0000     0.0000 </r>
        <r>   -10.7292     0.0000     0.0000     0.0000     0.0000     0.0000     0.0000     0.0000     0.0000     0.0000 </r>
        <r>   -10.6398     0.0000     0.0000     0.0000     0.0000     0.0000     0.0000     0.0000     0.0000     0.0000 </r>
        <r>   -10.5504     0.0000     0.0000     0.0000     0.0000     0.0000     0.0000     0.0000     0.0000     0.0000 </r>
        <r>   -10.4610     0.0000     0.0000     0.0000     0.0000     0.0000     0.0000     0.0000     0.0000     0.0000 </r>
        <r>   -10.3716     0.0000     0.0000     0.0000     0.0000     0.0000     0.0000     0.0000     0.0000     0.0000 </r>
        <r>   -10.2822     0.0000     0.0000     0.0000     0.0000     0.0000     0.0000     0.0000     0.0000     0.0000 </r>
        <r>   -10.1928     0.0000     0.0000     0.0000     0.0000     0.0000     0.0000     0.0000     0.0000     0.0000 </r>
        <r>   -10.1034     0.0000     0.0000     0.0000     0.0000     0.0000     0.0000     0.0000     0.0000     0.0000 </r>
        <r>   -10.0140     0.0000     0.0000     0.0000     0.0000     0.0000     0.0000     0.0000     0.0000     0.0000 </r>
        <r>    -9.9246     0.0000     0.0000     0.0000     0.0000     0.0000     0.0000     0.0000     0.0000     0.0000 </r>
        <r>    -9.8352     0.0000     0.0000     0.0000     0.0000     0.0000     0.0000     0.0000     0.0000     0.0000 </r>
        <r>    -9.7458     0.0291     0.0000     0.0002     0.0000     0.0000     0.0000     0.0000     0.0000     0.0000 </r>
        <r>    -9.6564     0.4151     0.0000     0.0033     0.0000     0.0000     0.0000     0.0000     0.0000     0.0000 </r>
        <r>    -9.5670     0.0966     0.0000     0.0008     0.0000     0.0000     0.0000     0.0000     0.0000     0.0000 </r>
        <r>    -9.4776     0.0002     0.0000     0.0000     0.0000     0.0000     0.0000     0.0000     0.0000     0.0000 </r>
        <r>    -9.3882     0.0000     0.0000     0.0000     0.0000     0.0000     0.0000     0.0000     0.0000     0.0000 </r>
        <r>    -9.2988     0.0000     0.0000     0.0000     0.0000     0.0000     0.0000     0.0000     0.0000     0.0000 </r>
        <r>    -9.2094     0.0000     0.0000     0.0000     0.0000     0.0000     0.0000     0.0000     0.0000     0.0000 </r>
        <r>    -9.1200     0.0000     0.0000     0.0000     0.0000     0.0000     0.0000     0.0000     0.0000     0.0000 </r>
        <r>    -9.0306     0.0000     0.0000     0.0000     0.0000     0.0000     0.0000     0.0000     0.0000     0.0000 </r>
        <r>    -8.9411     0.0000     0.0000     0.0000     0.0000     0.0000     0.0000     0.0000     0.0000     0.0000 </r>
        <r>    -8.8517     0.0000     0.0000     0.0000     0.0000     0.0000     0.0000     0.0000     0.0000     0.0000 </r>
        <r>    -8.7623     0.0000     0.0000     0.0000     0.0000     0.0000     0.0000     0.0000     0.0000     0.0000 </r>
        <r>    -8.6729     0.0178     0.0000     0.0002     0.0000     0.0000     0.0000     0.0000     0.0000     0.0000 </r>
        <r>    -8.5835     0.7906     0.0000     0.0075     0.0000     0.0000     0.0000     0.0000     0.0000     0.0000 </r>
        <r>    -8.4941     0.4763     0.0000     0.0045     0.0000     0.0000     0.0000     0.0000     0.0000     0.0000 </r>
        <r>    -8.4047     0.0028     0.0000     0.0000     0.0000     0.0000     0.0000     0.0000     0.0000     0.0000 </r>
        <r>    -8.3153     0.0000     0.0000     0.0000     0.0000     0.0000     0.0000     0.0000     0.0000     0.0000 </r>
        <r>    -8.2259     0.0000     0.0000     0.0000     0.0000     0.0000     0.0000     0.0000     0.0000     0.0000 </r>
        <r>    -8.1365     0.0000     0.0000     0.0000     0.0000     0.0000     0.0000     0.0000     0.0000     0.0000 </r>
        <r>    -8.0471     0.0000     0.0000     0.0000     0.0000     0.0000     0.0000     0.0000     0.0000     0.0000 </r>
        <r>    -7.9577     0.0000     0.0000     0.0000     0.0000     0.0000     0.0000     0.0000     0.0000     0.0000 </r>
        <r>    -7.8683     0.0001     0.0000     0.0000     0.0000     0.0000     0.0000     0.0000     0.0000     0.0000 </r>
        <r>    -7.7789     0.1351     0.0000     0.0019     0.0000     0.0000     0.0000     0.0000     0.0000     0.0000 </r>
        <r>    -7.6895     1.0780     0.0000     0.0175     0.0000     0.0000     0.0000     0.0000     0.0000     0.0000 </r>
        <r>    -7.6001     0.1596     0.0000     0.0030     0.0000     0.0000     0.0000     0.0000     0.0000     0.0000 </r>
        <r>    -7.5107     0.0002     0.0000     0.0000     0.0000     0.0000     0.0000     0.0000     0.0000     0.0000 </r>
        <r>    -7.4213     0.0000     0.0000     0.0000     0.0000     0.0000     0.0000     0.0000     0.0000     0.0000 </r>
        <r>    -7.3319     0.0000     0.0000     0.0000     0.0000     0.0000     0.0000     0.0000     0.0000     0.0000 </r>
        <r>    -7.2425     0.0000     0.0000     0.0000     0.0000     0.0000     0.0000     0.0000     0.0000     0.0000 </r>
[...]
        <r>    10.9068     0.0000     0.0000     0.0000     0.0000     0.0000     0.0000     0.0000     0.0000     0.0000 </r>
        <r>    10.9962     0.0000     0.0000     0.0000     0.0000     0.0000     0.0000     0.0000     0.0000     0.0000 </r>
        <r>    11.0856     0.0000     0.0000     0.0000     0.0000     0.0000     0.0000     0.0000     0.0000     0.0000 </r>
        <r>    11.1750     0.0000     0.0106     0.0000     0.0106     0.0000     0.0000     0.0000     0.0000     0.0000 </r>
        <r>    11.2644     0.0000     0.0850     0.0000     0.0850     0.0000     0.0000     0.0000     0.0000     0.0000 </r>
        <r>    11.3538     0.0000     0.0115     0.0000     0.0115     0.0000     0.0000     0.0000     0.0000     0.0000 </r>
        <r>    11.4432     0.0000     0.0000     0.0000     0.0000     0.0000     0.0000     0.0000     0.0000     0.0000 </r>
        <r>    11.5326     0.0000     0.0000     0.0000     0.0000     0.0000     0.0000     0.0000     0.0000     0.0000 </r>
        <r>    11.6220     0.0000     0.0000     0.0000     0.0000     0.0000     0.0000     0.0000     0.0000     0.0000 </r>
        <r>    11.7114     0.0000     0.0000     0.0000     0.0000     0.0000     0.0000     0.0000     0.0000     0.0000 </r>
        <r>    11.8008     0.0000     0.0000     0.0000     0.0000     0.0000     0.0000     0.0000     0.0000     0.0000 </r>
        <r>    11.8902     0.0000     0.0000     0.0000     0.0000     0.0000     0.0000     0.0000     0.0000     0.0000 </r>
        <r>    11.9796     0.0007     0.0000     0.0001     0.0000     0.0000     0.0000     0.0000     0.0000     0.0000 </r>
        <r>    12.0690     0.1254     0.0000     0.0101     0.0000     0.0000     0.0000     0.0000     0.0000     0.0000 </r>
        <r>    12.1584     0.2069     0.0000     0.0167     0.0000     0.0000     0.0000     0.0000     0.0000     0.0000 </r>
        <r>    12.2478     0.0046     0.0000     0.0004     0.0000     0.0000     0.0000     0.0000     0.0000     0.0000 </r>
        <r>    12.3372     0.0000     0.0000     0.0000     0.0000     0.0000     0.0000     0.0000     0.0000     0.0000 </r>
        <r>    12.4267     0.0000     0.0000     0.0000     0.0000     0.0000     0.0000     0.0000     0.0000     0.0000 </r>
        <r>    12.5161     0.0000     0.0000     0.0000     0.0000     0.0000     0.0000     0.0000     0.0000     0.0000 </r>
        <r>    12.6055     0.0000     0.0000     0.0000     0.0000     0.0000     0.0000     0.0000     0.0000     0.0000 </r>
        <r>    12.6949     0.0000     0.0000     0.0000     0.0000     0.0000     0.0000     0.0000     0.0000     0.0000 </r>
        <r>    12.7843     0.0000     0.0000     0.0000     0.0000     0.0000     0.0000     0.0000     0.0000     0.0000 </r>
        <r>    12.8737     0.0000     0.0000     0.0000     0.0000     0.0000     0.0000     0.0000     0.0000     0.0000 </r>
        <r>    12.9631     0.0000     0.0000     0.0000     0.0000     0.0000     0.0000     0.0000     0.0000     0.0000 </r>
        <r>    13.0525     0.0000     0.0000     0.0000     0.0000     0.0000     0.0000     0.0000     0.0000     0.0000 </r>
        <r>    13.1419     0.0000     0.0000     0.0000     0.0000     0.0000     0.0000     0.0000     0.0000     0.0000 </r>
        <r>    13.2313     0.0000     0.0000     0.0000     0.0000     0.0000     0.0000     0.0000     0.0000     0.0000 </r>
        <r>    13.3207     0.0000     0.0000     0.0000     0.0000     0.0000     0.0000     0.0000     0.0000     0.0000 </r>
        <r>    13.4101     0.0000     0.0000     0.0000     0.0000     0.0000     0.0000     0.0000     0.0000     0.0000 </r>
        <r>    13.4995     0.0000     0.0000     0.0000     0.0000     0.0000     0.0000     0.0000     0.0000     0.0000 </r>
        <r>    13.5889     0.0000     0.0002     0.0000     0.0002     0.0000     0.0000     0.0000     0.0000     0.0000 </r>
        <r>    13.6783     0.0000     0.0522     0.0000     0.0522     0.0000     0.0000     0.0000     0.0000     0.0000 </r>
        <r>    13.7677     0.0000     0.1079     0.0000     0.1079     0.0000     0.0000     0.0000     0.0000     0.0000 </r>
        <r>    13.8571     0.0000     0.0032     0.0000     0.0032     0.0000     0.0000     0.0000     0.0000     0.0000 </r>
        <r>    13.9465     0.0000     0.0000     0.0000     0.0000     0.0000     0.0000     0.0000     0.0000     0.0000 </r>
        <r>    14.0359     0.0000     0.0000     0.0000     0.0000     0.0000     0.0000     0.0000     0.0000     0.0000 </r>
        <r>    14.1253     0.0000     0.0000     0.0000     0.0000     0.0000     0.0000     0.0000     0.0000     0.0000 </r>
        <r>    14.2148     0.0000     0.0000     0.0000     0.0000     0.0000     0.0000     0.0000     0.0000     0.0000 </r>
        <r>    14.3042     0.0000     0.0000     0.0000     0.0000     0.0000     0.0000     0.0000     0.0000     0.0000 </r>
        <r>    14.3936     0.0000     0.0000     0.0000     0.0031     0.0000     0.0000     0.0000     0.0000     0.0000 </r>
        <r>    14.4830     0.0000     0.0010     0.0000     0.1015     0.0000     0.0000     0.0000     0.0000     0.0000 </r>
        <r>    14.5724     0.0001     0.0005     0.0000     0.0477     0.0000     0.0000     0.0000     0.0000     0.0000 </r>
        <r>    14.6618     0.0721     0.0000     0.0028     0.0002     0.0000     0.0000     0.0000     0.0000     0.0000 </r>
        <r>    14.7512     0.3097     0.0000     0.0119     0.0000     0.0000     0.0000     0.0000     0.0000     0.0000 </r>
        <r>    14.8406     0.0217     0.0000     0.0008     0.0000     0.0000     0.0000     0.0000     0.0000     0.0000 </r>
        <r>    14.9300     0.0000     0.0000     0.0000     0.0000     0.0000     0.0000     0.0000     0.0000     0.0000 </r>
        <r>    15.0194     0.0000     0.0000     0.0000     0.0000     0.0000     0.0000     0.0000     0.0000     0.0000 </r>
        <r>    15.1088     0.0000     0.0000     0.0000     0.0000     0.0000     0.0000     0.0000     0.0000     0.0000 </r>
        <r>    15.1982     0.0000     0.0000     0.0000     0.0000     0.0000     0.0000     0.0000     0.0000     0.0000 </r>
        <r>    15.2876     0.0000     0.0000     0.0000     0.0000     0.0000     0.0000     0.0000     0.0000     0.0000 </r>
        <r>    15.3770     0.0000     0.0000     0.0000     0.0000     0.0000     0.0000     0.0000     0.0000     0.0000 </r>
        <r>    15.4664     0.0000     0.0000     0.0000     0.0000     0.0000     0.0000     0.0000     0.0000     0.0000 </r>
        <r>    15.5558     0.0000     0.0000     0.0000     0.0000     0.0000     0.0000     0.0000     0.0000     0.0000 </r>
        <r>    15.6452     0.0000     0.0000     0.0000     0.0000     0.0000     0.0000     0.0000     0.0000     0.0000 </r>
        <r>    15.7346     0.0000     0.0000     0.0000     0.0000     0.0000     0.0000     0.0000     0.0000     0.0000 </r>
        <r>    15.8240     0.0000     0.0000     0.0000     0.0000     0.0000     0.0000     0.0000     0.0000     0.0000 </r>
        <r>    15.9134     0.0000     0.0000     0.0000     0.0000     0.0000     0.0000     0.0000     0.0000     0.0000 </r>
       </set>
      </set>
     </set>
    </array>
   </partial>
  </dos>
  <projected>
   <eigenvalues>
    <array>
     <dimension dim="1">band</dimension>
     <dimension dim="2">kpoint</dimension>
     <dimension dim="3">spin</dimension>
     <field>eigene</field>
     <field>occ</field>
     <set>
      <set comment="spin 1">
       <set comment="kpoint 1">
        <r>   -9.6889    1.0000 </r>
        <r>    5.2970    0.0000 </r>
        <r>    5.5722    0.0000 </r>
        <r>   11.2206    0.0000 </r>
        <r>   11.2206    0.0000 </r>
       </set>
       <set comment="kpoint 2">
        <r>   -8.5951    1.0000 </r>
        <r>    0.8937    0.0000 </r>
        <r>    6.4640    0.0000 </r>
        <r>    9.8692    0.0000 </r>
        <r>   13.6948    0.0000 </r>
       </set>
       <set comment="kpoint 3">
        <r>   -8.5951    1.0000 </r>
        <r>    0.8937    0.0000 </r>
        <r>    6.4640    0.0000 </r>
        <r>    9.8692    0.0000 </r>
        <r>   13.6948    0.0000 </r>
       </set>
       <set comment="kpoint 4">
        <r>   -7.7388    1.0000 </r>
        <r>    3.9812    0.0000 </r>
        <r>    3.9812    0.0000 </r>
        <r>    6.4112    0.0000 </r>
        <r>    7.1916    0.0000 </r>
       </set>
       <set comment="kpoint 5">
        <r>   -7.7253    1.0000 </r>
        <r>   -2.3857    0.0000 </r>
        <r>    9.2780    0.0000 </r>
        <r>   12.0804    0.0000 </r>
        <r>   14.4658    0.0000 </r>
       </set>
       <set comment="kpoint 6">
        <r>   -6.8578    1.0000 </r>
        <r>   -0.6163    0.0000 </r>
        <r>    4.5349    0.0000 </r>
        <r>    5.6569    0.0000 </r>
        <r>   14.6943    0.0000 </r>
       </set>
       <set comment="kpoint 7">
        <r>   -6.8578    1.0000 </r>
        <r>   -0.6163    0.0000 </r>
        <r>    4.5349    0.0000 </r>
        <r>    5.6569    0.0000 </r>
        <r>   14.6943    0.0000 </r>
       </set>
       <set comment="kpoint 8">
        <r>   -6.1548    1.0000 </r>
        <r>    0.7730    0.0000 </r>
        <r>    7.4635    0.0000 </r>
        <r>    7.4635    0.0000 </r>
        <r>    8.9453    0.0000 </r>
       </set>
      </set>
     </set>
    </array>
   </eigenvalues>
   <array>
    <dimension dim="1">ion</dimension>
    <dimension dim="2">band</dimension>
    <dimension dim="3">kpoint</dimension>
    <dimension dim="4">spin</dimension>
    <field>  s</field>
    <field> py</field>
    <field> pz</field>
    <field> px</field>
    <field>dxy</field>
    <field>dyz</field>
    <field>dz2</field>
    <field>dxz</field>
    <field>dx2</field>
    <set>
     <set comment="spin1">
      <set comment="kpoint 1">
       <set comment="band 1">
        <r>  0.1935  0.0000  0.0015  0.0000  0.0000  0.0000  0.0000  0.0000  0.0000 </r>
        <r>  0.1935  0.0000  0.0015  0.0000  0.0000  0.0000  0.0000  0.0000  0.0000 </r>
       </set>
       <set comment="band 2">
        <r>  0.1157  0.0000  0.0092  0.0000  0.0000  0.0000  0.0000  0.0000  0.0000 </r>
        <r>  0.1157  0.0000  0.0092  0.0000  0.0000  0.0000  0.0000  0.0000  0.0000 </r>
       </set>
       <set comment="band 3">
        <r>  0.2082  0.0000  0.0112  0.0000  0.0000  0.0000  0.0000  0.0000  0.0000 </r>
        <r>  0.2082  0.0000  0.0112  0.0000  0.0000  0.0000  0.0000  0.0000  0.0000 </r>
       </set>
       <set comment="band 4">
        <r>  0.0000  0.0240  0.0000  0.0143  0.0000  0.0000  0.0000  0.0000  0.0000 </r>
        <r>  0.0000  0.0240  0.0000  0.0143  0.0000  0.0000  0.0000  0.0000  0.0000 </r>
       </set>
       <set comment="band 5">
        <r>  0.0000  0.0143  0.0000  0.0240  0.0000  0.0000  0.0000  0.0000  0.0000 </r>
        <r>  0.0000  0.0143  0.0000  0.0240  0.0000  0.0000  0.0000  0.0000  0.0000 </r>
       </set>
      </set>
      <set comment="kpoint 2">
       <set comment="band 1">
        <r>  0.2302  0.0000  0.0022  0.0000  0.0000  0.0000  0.0000  0.0000  0.0000 </r>
        <r>  0.2302  0.0000  0.0022  0.0000  0.0000  0.0000  0.0000  0.0000  0.0000 </r>
       </set>
       <set comment="band 2">
        <r>  0.0000  0.0000  0.0000  0.0102  0.0000  0.0000  0.0000  0.0000  0.0000 </r>
        <r>  0.0000  0.0000  0.0000  0.0102  0.0000  0.0000  0.0000  0.0000  0.0000 </r>
       </set>
       <set comment="band 3">
        <r>  0.2386  0.0000  0.0135  0.0000  0.0000  0.0000  0.0000  0.0000  0.0000 </r>
        <r>  0.2386  0.0000  0.0135  0.0000  0.0000  0.0000  0.0000  0.0000  0.0000 </r>
       </set>
       <set comment="band 4">
        <r>  0.0839  0.0000  0.0227  0.0000  0.0000  0.0000  0.0000  0.0000  0.0000 </r>
        <r>  0.0839  0.0000  0.0227  0.0000  0.0000  0.0000  0.0000  0.0000  0.0000 </r>
       </set>
       <set comment="band 5">
        <r>  0.0000  0.0585  0.0000  0.0000  0.0000  0.0000  0.0000  0.0000  0.0000 </r>
        <r>  0.0000  0.0585  0.0000  0.0000  0.0000  0.0000  0.0000  0.0000  0.0000 </r>
       </set>
      </set>
      <set comment="kpoint 3">
       <set comment="band 1">
        <r>  0.2302  0.0000  0.0022  0.0000  0.0000  0.0000  0.0000  0.0000  0.0000 </r>
        <r>  0.2302  0.0000  0.0022  0.0000  0.0000  0.0000  0.0000  0.0000  0.0000 </r>
       </set>
       <set comment="band 2">
        <r>  0.0000  0.0102  0.0000  0.0000  0.0000  0.0000  0.0000  0.0000  0.0000 </r>
        <r>  0.0000  0.0102  0.0000  0.0000  0.0000  0.0000  0.0000  0.0000  0.0000 </r>
       </set>
       <set comment="band 3">
        <r>  0.2386  0.0000  0.0135  0.0000  0.0000  0.0000  0.0000  0.0000  0.0000 </r>
        <r>  0.2386  0.0000  0.0135  0.0000  0.0000  0.0000  0.0000  0.0000  0.0000 </r>
       </set>
       <set comment="band 4">
        <r>  0.0839  0.0000  0.0227  0.0000  0.0000  0.0000  0.0000  0.0000  0.0000 </r>
        <r>  0.0839  0.0000  0.0227  0.0000  0.0000  0.0000  0.0000  0.0000  0.0000 </r>
       </set>
       <set comment="band 5">
        <r>  0.0000  0.0000  0.0000  0.0585  0.0000  0.0000  0.0000  0.0000  0.0000 </r>
        <r>  0.0000  0.0000  0.0000  0.0585  0.0000  0.0000  0.0000  0.0000  0.0000 </r>
       </set>
      </set>
      <set comment="kpoint 4">
       <set comment="band 1">
        <r>  0.2588  0.0000  0.0025  0.0000  0.0000  0.0000  0.0000  0.0000  0.0000 </r>
        <r>  0.2588  0.0000  0.0025  0.0000  0.0000  0.0000  0.0000  0.0000  0.0000 </r>
       </set>
       <set comment="band 2">
        <r>  0.0000  0.0026  0.0000  0.0149  0.0000  0.0000  0.0000  0.0000  0.0000 </r>
        <r>  0.0000  0.0026  0.0000  0.0149  0.0000  0.0000  0.0000  0.0000  0.0000 </r>
       </set>
       <set comment="band 3">
        <r>  0.0000  0.0149  0.0000  0.0026  0.0000  0.0000  0.0000  0.0000  0.0000 </r>
        <r>  0.0000  0.0149  0.0000  0.0026  0.0000  0.0000  0.0000  0.0000  0.0000 </r>
       </set>
       <set comment="band 4">
        <r>  0.0000  0.0000  0.0000  0.0000  0.0000  0.0000  0.0000  0.0000  0.0000 </r>
        <r>  0.0000  0.0000  0.0000  0.0000  0.0000  0.0000  0.0000  0.0000  0.0000 </r>
       </set>
       <set comment="band 5">
        <r>  0.2619  0.0000  0.0148  0.0000  0.0000  0.0000  0.0000  0.0000  0.0000 </r>
        <r>  0.2619  0.0000  0.0148  0.0000  0.0000  0.0000  0.0000  0.0000  0.0000 </r>
       </set>
      </set>
      <set comment="kpoint 5">
       <set comment="band 1">
        <r>  0.2322  0.0000  0.0055  0.0000  0.0000  0.0000  0.0000  0.0000  0.0000 </r>
        <r>  0.2322  0.0000  0.0055  0.0000  0.0000  0.0000  0.0000  0.0000  0.0000 </r>
       </set>
       <set comment="band 2">
        <r>  0.0916  0.0000  0.0091  0.0000  0.0000  0.0000  0.0000  0.0000  0.0000 </r>
        <r>  0.0916  0.0000  0.0091  0.0000  0.0000  0.0000  0.0000  0.0000  0.0000 </r>
       </set>
       <set comment="band 3">
        <r>  0.0989  0.0000  0.0035  0.0000  0.0000  0.0000  0.0000  0.0000  0.0000 </r>
        <r>  0.0989  0.0000  0.0035  0.0000  0.0000  0.0000  0.0000  0.0000  0.0000 </r>
       </set>
       <set comment="band 4">
        <r>  0.1207  0.0000  0.0098  0.0000  0.0000  0.0000  0.0000  0.0000  0.0000 </r>
        <r>  0.1207  0.0000  0.0098  0.0000  0.0000  0.0000  0.0000  0.0000  0.0000 </r>
       </set>
       <set comment="band 5">
        <r>  0.0000  0.0005  0.0000  0.0545  0.0000  0.0000  0.0000  0.0000  0.0000 </r>
        <r>  0.0000  0.0005  0.0000  0.0545  0.0000  0.0000  0.0000  0.0000  0.0000 </r>
       </set>
      </set>
      <set comment="kpoint 6">
       <set comment="band 1">
        <r>  0.2629  0.0000  0.0059  0.0000  0.0000  0.0000  0.0000  0.0000  0.0000 </r>
        <r>  0.2629  0.0000  0.0059  0.0000  0.0000  0.0000  0.0000  0.0000  0.0000 </r>
       </set>
       <set comment="band 2">
        <r>  0.1252  0.0000  0.0118  0.0000  0.0000  0.0000  0.0000  0.0000  0.0000 </r>
        <r>  0.1252  0.0000  0.0118  0.0000  0.0000  0.0000  0.0000  0.0000  0.0000 </r>
       </set>
       <set comment="band 3">
        <r>  0.0000  0.0000  0.0000  0.0152  0.0000  0.0000  0.0000  0.0000  0.0000 </r>
        <r>  0.0000  0.0000  0.0000  0.0152  0.0000  0.0000  0.0000  0.0000  0.0000 </r>
       </set>
       <set comment="band 4">
        <r>  0.0000  0.0000  0.0000  0.0049  0.0000  0.0000  0.0000  0.0000  0.0000 </r>
        <r>  0.0000  0.0000  0.0000  0.0049  0.0000  0.0000  0.0000  0.0000  0.0000 </r>
       </set>
       <set comment="band 5">
        <r>  0.0722  0.0000  0.0028  0.0000  0.0000  0.0000  0.0000  0.0000  0.0000 </r>
        <r>  0.0722  0.0000  0.0028  0.0000  0.0000  0.0000  0.0000  0.0000  0.0000 </r>
       </set>
      </set>
      <set comment="kpoint 7">
       <set comment="band 1">
        <r>  0.2629  0.0000  0.0059  0.0000  0.0000  0.0000  0.0000  0.0000  0.0000 </r>
        <r>  0.2629  0.0000  0.0059  0.0000  0.0000  0.0000  0.0000  0.0000  0.0000 </r>
       </set>
       <set comment="band 2">
        <r>  0.1252  0.0000  0.0118  0.0000  0.0000  0.0000  0.0000  0.0000  0.0000 </r>
        <r>  0.1252  0.0000  0.0118  0.0000  0.0000  0.0000  0.0000  0.0000  0.0000 </r>
       </set>
       <set comment="band 3">
        <r>  0.0000  0.0152  0.0000  0.0000  0.0000  0.0000  0.0000  0.0000  0.0000 </r>
        <r>  0.0000  0.0152  0.0000  0.0000  0.0000  0.0000  0.0000  0.0000  0.0000 </r>
       </set>
       <set comment="band 4">
        <r>  0.0000  0.0049  0.0000  0.0000  0.0000  0.0000  0.0000  0.0000  0.0000 </r>
        <r>  0.0000  0.0049  0.0000  0.0000  0.0000  0.0000  0.0000  0.0000  0.0000 </r>
       </set>
       <set comment="band 5">
        <r>  0.0722  0.0000  0.0028  0.0000  0.0000  0.0000  0.0000  0.0000  0.0000 </r>
        <r>  0.0722  0.0000  0.0028  0.0000  0.0000  0.0000  0.0000  0.0000  0.0000 </r>
       </set>
      </set>
      <set comment="kpoint 8">
       <set comment="band 1">
        <r>  0.2868  0.0000  0.0069  0.0000  0.0000  0.0000  0.0000  0.0000  0.0000 </r>
        <r>  0.2868  0.0000  0.0069  0.0000  0.0000  0.0000  0.0000  0.0000  0.0000 </r>
       </set>
       <set comment="band 2">
        <r>  0.1559  0.0000  0.0149  0.0000  0.0000  0.0000  0.0000  0.0000  0.0000 </r>
        <r>  0.1559  0.0000  0.0149  0.0000  0.0000  0.0000  0.0000  0.0000  0.0000 </r>
       </set>
       <set comment="band 3">
        <r>  0.0000  0.0034  0.0000  0.0218  0.0000  0.0000  0.0000  0.0000  0.0000 </r>
        <r>  0.0000  0.0034  0.0000  0.0218  0.0000  0.0000  0.0000  0.0000  0.0000 </r>
       </set>
       <set comment="band 4">
        <r>  0.0000  0.0218  0.0000  0.0034  0.0000  0.0000  0.0000  0.0000  0.0000 </r>
        <r>  0.0000  0.0218  0.0000  0.0034  0.0000  0.0000  0.0000  0.0000  0.0000 </r>
       </set>
       <set comment="band 5">
        <r>  0.0000  0.0067  0.0000  0.0021  0.0000  0.0000  0.0000  0.0000  0.0000 </r>
        <r>  0.0000  0.0067  0.0000  0.0021  0.0000  0.0000  0.0000  0.0000  0.0000 </r>
       </set>
      </set>
     </set>
    </set>
   </array>
  </projected>
 </calculation>
 <structure name="finalpos" >
  <crystal>
   <varray name="basis" >
    <v>       3.00000000       0.00000000       0.00000000 </v>
    <v>       0.00000000       3.00000000       0.00000000 </v>
    <v>       0.00000000       0.00000000       3.00000000 </v>
   </varray>
   <i name="volume">     27.00000000 </i>
   <varray name="rec_basis" >
    <v>       0.33333333       0.00000000       0.00000000 </v>
    <v>       0.00000000       0.33333333       0.00000000 </v>
    <v>       0.00000000       0.00000000       0.33333333 </v>
   </varray>
  </crystal>
  <varray name="positions" >
   <v>       0.50000000       0.50000000       0.33333333 </v>
   <v>       0.50000000       0.50000000       0.66666667 </v>
  </varray>
 </structure>
</modeling>
