Screening bandgap                       
           1
     3.000000    0.000000    0.000000
     0.000000    3.000000    0.000000
     0.000000    0.000000    3.000000
   H 
   2
Direct configuration=     1
   0.50000000  0.50000000  0.33333333
   0.50000000  0.50000000  0.66666667
